<UPF version="2.0.1">
  <PP_INFO>
    Generated in analytical, separable form
    Author: Goedecker/Hartwigsen/Hutter/Teter
    Generation date: Phys.Rev.B58, 3641 (1998); B54, 1703 (1996)
    Pseudopotential type: NC
    Element: Ar
    Functional: SLA-PW-PBX-PBC

    Suggested minimum cutoff for wavefunctions:   0. Ry
    Suggested minimum cutoff for charge density:   0. Ry
    The Pseudo was generated with a Scalar-Relativistic Calculation
    Local Potential: unknown format, L component and cutoff radius: -3   0.0000

    Valence configuration: 
    nl pn  l   occ       Rcut    Rcut US       E pseu

    Generation configuration: not available.
    Converted from CPMD format using cpmd2upf v.5.0.1 - PG 10Jul2012
    Contains atomic orbitals generated by ld1.x - use with care
  </PP_INFO>
  <!--                               -->
  <!-- END OF HUMAN READABLE SECTION -->
  <!--                               -->
  <PP_HEADER generated="Generated in analytical, separable form"
             author="Goedecker/Hartwigsen/Hutter/Teter"
             date="Phys.Rev.B58, 3641 (1998); B54, 1703 (1996)"
             comment="Contains atomic orbitals generated by ld1.x - use with care"
             element="Ar"
             pseudo_type="NC"
             relativistic="scalar"
             is_ultrasoft="F"
             is_paw="F"
             is_coulomb="F"
             has_so="F"
             has_wfc="F"
             has_gipaw="F"
             paw_as_gipaw="F"
             core_correction="F"
             functional="SLA-PW-PBX-PBC"
             z_valence="8.000000000000000E+000"
             total_psenergy="0.000000000000000E+000"
             wfc_cutoff="0.000000000000000E+000"
             rho_cutoff="0.000000000000000E+000"
             l_max="1"
             l_max_rho="0"
             l_local="-3"
             mesh_size="1161"
             number_of_wfc=" 3"
             number_of_proj="3"/>
  <PP_MESH dx="1.250000000000000E-002" mesh="1161" xmin="-7.000000000000000E+000" rmax="1.004468008031147E+002"
zmesh="1.800000000000000E+001">
    <PP_R type="real" size="1161" columns="4">
 5.066010919747313E-005  5.129733492605679E-005  5.194257596758790E-005  5.259593314229189E-005 
 5.325750853855666E-005  5.392740552888383E-005  5.460572878604103E-005  5.529258429941729E-005 
 5.598807939158392E-005  5.669232273506414E-005  5.740542436931316E-005  5.812749571791214E-005 
 5.885864960597834E-005  5.959900027779427E-005  6.034866341465877E-005  6.110775615296213E-005 
 6.187639710248906E-005  6.265470636495180E-005  6.344280555275598E-005  6.424081780800321E-005 
 6.504886782173191E-005  6.586708185340071E-005  6.669558775061671E-005  6.753451496911193E-005 
 6.838399459297117E-005  6.924415935511387E-005  7.011514365803413E-005  7.099708359480135E-005 
 7.189011697032488E-005  7.279438332288666E-005  7.371002394594397E-005  7.463718191020704E-005 
 7.557600208599411E-005  7.652663116586761E-005  7.748921768755548E-005  7.846391205716009E-005 
 7.945086657265969E-005  8.045023544770531E-005  8.146217483571684E-005  8.248684285428261E-005 
 8.352439960986513E-005  8.457500722281842E-005  8.563882985271946E-005  8.671603372401845E-005 
 8.780678715201206E-005  8.891126056914246E-005  9.002962655162815E-005  9.116205984642922E-005 
 9.230873739855189E-005  9.346983837869673E-005  9.464554421125410E-005  9.583603860265235E-005 
 9.704150757006220E-005  9.826213947046225E-005  9.949812503007054E-005  1.007496573741453E-004 
 1.020169320571615E-004  1.033001470933667E-004  1.045995029877210E-004  1.059152027672265E-004 
 1.072474520126505E-004  1.085964588906482E-004  1.099624341862887E-004  1.113455913359911E-004 
 1.127461464608741E-004  1.141643184005255E-004  1.156003287471961E-004  1.170544018804241E-004 
 1.185267650020949E-004  1.200176481719419E-004  1.215272843434936E-004  1.230559094004732E-004 
 1.246037621936558E-004  1.261710845781893E-004  1.277581214513853E-004  1.293651207909841E-004 
 1.309923336939018E-004  1.326400144154652E-004  1.343084204091391E-004  1.359978123667546E-004 
 1.377084542592422E-004  1.394406133778777E-004  1.411945603760477E-004  1.429705693115389E-004 
 1.447689176893610E-004  1.465898865051068E-004  1.484337602888584E-004  1.503008271496459E-004 
 1.521913788204649E-004  1.541057107038605E-004  1.560441219180840E-004  1.580069153438315E-004 
 1.599943976715691E-004  1.620068794494538E-004  1.640446751318582E-004  1.661081031285033E-004 
 1.681974858542120E-004  1.703131497792857E-004  1.724554254805172E-004  1.746246476928434E-004 
 1.768211553616482E-004  1.790452916957237E-004  1.812974042208971E-004  1.835778448343323E-004 
 1.858869698595151E-004  1.882251401019284E-004  1.905927209054297E-004  1.929900822093363E-004 
 1.954175986062294E-004  1.978756494004850E-004  2.003646186675406E-004  2.028848953139080E-004 
 2.054368731379407E-004  2.080209508913656E-004  2.106375323415893E-004  2.132870263347869E-004 
 2.159698468597850E-004  2.186864131127491E-004  2.214371495626828E-004  2.242224860177532E-004 
 2.270428576924482E-004  2.298987052755798E-004  2.327904749991433E-004  2.357186187080411E-004 
 2.386835939306855E-004  2.416858639504872E-004  2.447258978782448E-004  2.478041707254445E-004 
 2.509211634784814E-004  2.540773631738151E-004  2.572732629740692E-004  2.605093622450895E-004 
 2.637861666339710E-004  2.671041881480661E-004  2.704639452349868E-004  2.738659628636140E-004 
 2.773107726061232E-004  2.807989127210452E-004  2.843309282373697E-004  2.879073710397069E-004 
 2.915287999545213E-004  2.951957808374486E-004  2.989088866617122E-004  3.026686976076516E-004 
 3.064758011533762E-004  3.103307921665611E-004  3.142342729973949E-004  3.181868535726992E-004 
 3.221891514912304E-004  3.262417921201807E-004  3.303454086928941E-004  3.345006424078088E-004 
 3.387081425286466E-004  3.429685664858615E-004  3.472825799793645E-004  3.516508570825415E-004 
 3.560740803475769E-004  3.605529409121048E-004  3.650881386072010E-004  3.696803820667319E-004 
 3.743303888380815E-004  3.790388854942682E-004  3.838066077474740E-004  3.886343005640009E-004 
 3.935227182806733E-004  3.984726247227055E-004  4.034847933230495E-004  4.085600072432465E-004 
 4.136990594957969E-004  4.189027530680705E-004  4.241719010477757E-004  4.295073267500039E-004 
 4.349098638458763E-004  4.403803564928057E-004  4.459196594663974E-004  4.515286382940117E-004 
 4.572081693900017E-004  4.629591401926561E-004  4.687824493028632E-004  4.746790066245188E-004 
 4.806497335067019E-004  4.866955628876349E-004  4.928174394404588E-004  4.990163197208402E-004 
 5.052931723164342E-004  5.116489779982300E-004  5.180847298737959E-004  5.246014335424562E-004 
 5.312001072524174E-004  5.378817820598713E-004  5.446475019901015E-004  5.514983242006118E-004 
 5.584353191463103E-004  5.654595707467710E-004  5.725721765555967E-004  5.797742479319169E-004 
 5.870669102140363E-004  5.944513028952737E-004  6.019285798020090E-004  6.094999092739710E-004 
 6.171664743467947E-004  6.249294729368703E-004  6.327901180285209E-004  6.407496378635351E-004 
 6.488092761330801E-004  6.569702921720343E-004  6.652339611557568E-004  6.736015742993388E-004 
 6.820744390593583E-004  6.906538793381712E-004  6.993412356907777E-004  7.081378655342816E-004 
 7.170451433599930E-004  7.260644609481940E-004  7.351972275856071E-004  7.444448702856015E-004 
 7.538088340111630E-004  7.632905819006746E-004  7.728915954965351E-004  7.826133749766513E-004 
 7.924574393888476E-004  8.024253268882156E-004  8.125185949774568E-004  8.227388207502452E-004 
 8.330876011376502E-004  8.435665531576637E-004  8.541773141678573E-004  8.649215421212272E-004 
 8.758009158252500E-004  8.868171352042005E-004  8.979719215647708E-004  9.092670178650238E-004 
 9.207041889867364E-004  9.322852220111651E-004  9.440119264982814E-004  9.558861347695213E-004 
 9.679097021940841E-004  9.800845074788424E-004  9.924124529618918E-004  1.004895464909794E-003 
 1.017535493818565E-003  1.030334514718438E-003  1.043294527482467E-003  1.056417557139014E-003 
 1.069705654188163E-003  1.083160894922111E-003  1.096785381749599E-003  1.110581243524413E-003 
 1.124550635878022E-003  1.138695741556403E-003  1.153018770761097E-003  1.167521961494557E-003 
 1.182207579909843E-003  1.197077920664710E-003  1.212135307280154E-003  1.227382092503469E-003 
 1.242820658675867E-003  1.258453418104721E-003  1.274282813440496E-003  1.290311318058421E-003 
 1.306541436444950E-003  1.322975704589104E-003  1.339616690378715E-003  1.356466994001669E-003 
 1.373529248352189E-003  1.390806119442230E-003  1.408300306818052E-003  1.426014543982024E-003 
 1.443951598819742E-003  1.462114274032517E-003  1.480505407575305E-003  1.499127873100138E-003 
 1.517984580405143E-003  1.537078475889199E-003  1.556412543012324E-003  1.575989802761839E-003 
 1.595813314124413E-003  1.615886174564026E-003  1.636211520505961E-003  1.656792527826873E-003 
 1.677632412351028E-003  1.698734430352783E-003  1.720101879065383E-003  1.741738097196160E-003 
 1.763646465448220E-003  1.785830407048670E-003  1.808293388283524E-003  1.831038919039298E-003 
 1.854070553351449E-003  1.877391889959698E-003  1.901006572870335E-003  1.924918291925612E-003 
 1.949130783380280E-003  1.973647830485387E-003  1.998473264079426E-003  2.023610963186902E-003 
 2.049064855624445E-003  2.074838918614535E-003  2.100937179406949E-003  2.127363715908037E-003 
 2.154122657317889E-003  2.181218184775546E-003  2.208654532012295E-003  2.236435986013214E-003 
 2.264566887687012E-003  2.293051632544308E-003  2.321894671384440E-003  2.351100510990906E-003 
 2.380673714835566E-003  2.410618903791688E-003  2.440940756855968E-003  2.471644011879640E-003 
 2.502733466308768E-003  2.534213977933856E-003  2.566090465648896E-003  2.598367910219944E-003 
 2.631051355063385E-003  2.664145907033971E-003  2.697656737222776E-003  2.731589081765199E-003 
 2.765948242659108E-003  2.800739588593299E-003  2.835968555786357E-003  2.871640648836077E-003 
 2.907761441579578E-003  2.944336577964213E-003  2.981371772929452E-003  3.018872813299861E-003 
 3.056845558689290E-003  3.095295942416468E-003  3.134229972432076E-003  3.173653732257516E-003 
 3.213573381935471E-003  3.253995158992418E-003  3.294925379413264E-003  3.336370438628221E-003 
 3.378336812512110E-003  3.420831058396235E-003  3.463859816092968E-003  3.507429808933244E-003 
 3.551547844817089E-003  3.596220817277364E-003  3.641455706556909E-003  3.687259580699200E-003 
 3.733639596652766E-003  3.780603001389457E-003  3.828157133036810E-003  3.876309422024648E-003 
 3.925067392246089E-003  3.974438662233181E-003  4.024430946347305E-003  4.075052055984563E-003 
 4.126309900796328E-003  4.178212489925133E-003  4.230767933256131E-003  4.283984442684264E-003 
 4.337870333397398E-003  4.392434025175594E-003  4.447684043706697E-003  4.503629021918515E-003 
 4.560277701327713E-003  4.617638933405698E-003  4.675721680961689E-003  4.734535019543158E-003 
 4.794088138853919E-003  4.854390344190024E-003  4.915451057893740E-003  4.977279820825817E-003 
 5.039886293856250E-003  5.103280259373830E-003  5.167471622814641E-003  5.232470414209816E-003 
 5.298286789752759E-003  5.364931033386046E-003  5.432413558408338E-003  5.500744909101463E-003 
 5.569935762377986E-003  5.639996929449505E-003  5.710939357515911E-003  5.782774131475927E-003 
 5.855512475659133E-003  5.929165755579790E-003  6.003745479712740E-003  6.079263301291608E-003 
 6.155731020129662E-003  6.233160584463544E-003  6.311564092820209E-003  6.390953795907357E-003 
 6.471342098527609E-003  6.552741561516807E-003  6.635164903706648E-003  6.718625003912039E-003 
 6.803134902943441E-003  6.888707805644513E-003  6.975357082955404E-003  7.063096274001980E-003 
 7.151939088211347E-003  7.241899407453983E-003  7.332991288212790E-003  7.425228963779469E-003 
 7.518626846478485E-003  7.613199529919026E-003  7.708961791275294E-003  7.805928593595452E-003 
 7.904115088139645E-003  8.003536616747405E-003  8.104208714234857E-003  8.206147110822048E-003 
 8.309367734590838E-003  8.413886713973700E-003  8.519720380273805E-003  8.626885270216834E-003 
 8.735398128534870E-003  8.845275910582795E-003  8.956535784987599E-003  9.069195136331025E-003 
 9.183271567865921E-003  9.298782904266809E-003  9.415747194415007E-003  9.534182714218820E-003 
 9.654107969469175E-003  9.775541698731198E-003  9.898502876272138E-003  1.002301071502616E-002 
 1.014908466959637E-002  1.027674443929468E-002  1.040600997121984E-002  1.053690146337418E-002 
 1.066943936781968E-002  1.080364439387353E-002  1.093953751134412E-002  1.107713995380751E-002 
 1.121647322192530E-002  1.135755908680412E-002  1.150041959339737E-002  1.164507706394988E-002 
 1.179155410148573E-002  1.193987359334004E-002  1.209005871473516E-002  1.224213293240188E-002 
 1.239612000824610E-002  1.255204400306172E-002  1.270992928029014E-002  1.286980050982716E-002 
 1.303168267187765E-002  1.319560106085879E-002  1.336158128935235E-002  1.352964929210671E-002 
 1.369983133008925E-002  1.387215399458964E-002  1.404664421137481E-002  1.422332924489612E-002 
 1.440223670254953E-002  1.458339453898930E-002  1.476683106049593E-002  1.495257492939911E-002 
 1.514065516855626E-002  1.533110116588740E-002  1.552394267896708E-002  1.571920983967405E-002 
 1.591693315889945E-002  1.611714353131419E-002  1.631987224019628E-002  1.652515096231892E-002 
 1.673301177290012E-002  1.694348715061441E-002  1.715660998266778E-002  1.737241356993633E-002 
 1.759093163216963E-002  1.781219831325949E-002  1.803624818657499E-002  1.826311626036468E-002 
 1.849283798322665E-002  1.872544924964746E-002  1.896098640561077E-002  1.919948625427637E-002 
 1.944098606173086E-002  1.968552356281049E-002  1.993313696699732E-002  2.018386496438952E-002 
 2.043774673174680E-002  2.069482193861184E-002  2.095513075350873E-002  2.121871385021939E-002 
 2.148561241413896E-002  2.175586814871106E-002  2.202952328194406E-002  2.230662057300926E-002 
 2.258720331892218E-002  2.287131536130770E-002  2.315900109325048E-002  2.345030546623142E-002 
 2.374527399715149E-002  2.404395277544374E-002  2.434638847027497E-002  2.465262833783778E-002 
 2.496272022873454E-002  2.527671259545410E-002  2.559465449994255E-002  2.591659562126936E-002 
 2.624258626338971E-002  2.657267736300468E-002  2.690692049752015E-002  2.724536789310590E-002 
 2.758807243285609E-002  2.793508766505228E-002  2.828646781153052E-002  2.864226777615357E-002 
 2.900254315338979E-002  2.936735023699986E-002  2.973674602883280E-002  3.011078824773263E-002 
 3.048953533855703E-002  3.087304648130953E-002  3.126138160038644E-002  3.165460137394018E-002 
 3.205276724336038E-002  3.245594142287422E-002  3.286418690926751E-002  3.327756749172809E-002 
 3.369614776181298E-002  3.411999312354100E-002  3.454916980361224E-002  3.498374486175612E-002 
 3.542378620120964E-002  3.586936257932735E-002  3.632054361832486E-002  3.677739981615746E-002 
 3.724000255753553E-002  3.770842412507859E-002  3.818273771060958E-002  3.866301742659124E-002 
 3.914933831770631E-002  3.964177637258349E-002  4.014040853567069E-002  4.064531271925789E-002 
 4.115656781565101E-002  4.167425370949900E-002  4.219845129027604E-002  4.272924246492060E-002 
 4.326671017063363E-002  4.381093838783760E-002  4.436201215329874E-002  4.492001757341404E-002 
 4.548504183766568E-002  4.605717323224448E-002  4.663650115384487E-002  4.722311612363325E-002 
 4.781710980139212E-002  4.841857499984212E-002  4.902760569914421E-002  4.964429706158422E-002 
 5.026874544644222E-002  5.090104842504878E-002  5.154130479603073E-002  5.218961460074868E-002 
 5.284607913892857E-002  5.351080098449012E-002  5.418388400157406E-002  5.486543336077121E-002 
 5.555555555555558E-002  5.625435841892416E-002  5.696195114024608E-002  5.767844428232364E-002 
 5.840394979866803E-002  5.913858105099221E-002  5.988245282692400E-002  6.063568135794179E-002 
 6.139838433753601E-002  6.217068093959894E-002  6.295269183704594E-002  6.374453922067071E-002 
 6.454634681823797E-002  6.535823991381616E-002  6.618034536735325E-002  6.701279163449896E-002 
 6.785570878667613E-002  6.870922853140474E-002  6.957348423288139E-002  7.044861093281778E-002 
 7.133474537154122E-002  7.223202600936064E-002  7.314059304820124E-002  7.406058845351129E-002 
 7.499215597644465E-002  7.593544117632206E-002  7.689059144337511E-002  7.785775602177632E-002 
 7.883708603295876E-002  7.982873449922917E-002  8.083285636767788E-002  8.184960853438977E-002 
 8.287914986895950E-002  8.392164123931517E-002  8.497724553685441E-002  8.604612770189632E-002 
 8.712845474945385E-002  8.822439579533022E-002  8.933412208254353E-002  9.045780700808392E-002 
 9.159562615000716E-002  9.274775729486909E-002  9.391438046550511E-002  9.509567794915917E-002 
 9.629183432596644E-002  9.750303649779440E-002  9.872947371744661E-002  9.997133761823386E-002 
 1.012288222439172E-001  1.025021240790278E-001  1.037914420795680E-001  1.050969777040984E-001 
 1.064189349452165E-001  1.077575203614308E-001  1.091129431094360E-001  1.104854149767940E-001 
 1.118751504150265E-001  1.132823665731231E-001  1.147072833314715E-001  1.161501233362143E-001 
 1.176111120340375E-001  1.190904777073978E-001  1.205884515101913E-001  1.221052675038724E-001 
 1.236411626940260E-001  1.251963770674005E-001  1.267711536294058E-001  1.283657384420836E-001 
 1.299803806625551E-001  1.316153325819523E-001  1.332708496648388E-001  1.349471905891272E-001 
 1.366446172864973E-001  1.383633949833240E-001  1.401037922421194E-001  1.418660810034960E-001 
 1.436505366286582E-001  1.454574379424279E-001  1.472870672768115E-001  1.491397105151151E-001 
 1.510156571366137E-001  1.529152002617836E-001  1.548386366981029E-001  1.567862669864279E-001 
 1.587583954479536E-001  1.607553302317646E-001  1.627773833629835E-001  1.648248707915260E-001 
 1.668981124414686E-001  1.689974322610369E-001  1.711231582732241E-001  1.732756226270441E-001 
 1.754551616494316E-001  1.776621158977932E-001  1.798968302132201E-001  1.821596537743708E-001 
 1.844509401520305E-001  1.867710473643572E-001  1.891203379328234E-001  1.914991789388598E-001 
 1.939079420812135E-001  1.963470037340262E-001  1.988167450056434E-001  2.013175517981635E-001 
 2.038498148677359E-001  2.064139298856170E-001  2.090102974999951E-001  2.116393233985924E-001 
 2.143014183720542E-001  2.169969983781363E-001  2.197264846066988E-001  2.224903035455181E-001 
 2.252888870469265E-001  2.281226723952897E-001  2.309921023753339E-001  2.338976253413313E-001 
 2.368396952871566E-001  2.398187719172248E-001  2.428353207183200E-001  2.458898130323298E-001 
 2.489827261298926E-001  2.521145432849725E-001  2.552857538503717E-001  2.584968533341929E-001 
 2.617483434772636E-001  2.650407323315336E-001  2.683745343394601E-001  2.717502704143893E-001 
 2.751684680219510E-001  2.786296612624757E-001  2.821343909544491E-001  2.856832047190160E-001 
 2.892766570655473E-001  2.929153094782830E-001  2.965997305040655E-001  3.003304958411761E-001 
 3.041081884292890E-001  3.079333985405570E-001  3.118067238718422E-001  3.157287696381081E-001 
 3.197001486669852E-001  3.237214814945265E-001  3.277933964621678E-001  3.319165298149070E-001 
 3.360915258007194E-001  3.403190367712216E-001  3.445997232836038E-001  3.489342542038426E-001 
 3.533233068112131E-001  3.577675669041145E-001  3.622677289072286E-001  3.668244959800239E-001 
 3.714385801266263E-001  3.761107023070711E-001  3.808415925499545E-001  3.856319900665021E-001 
 3.904826433660720E-001  3.953943103731110E-001  4.003677585455818E-001  4.054037649948797E-001 
 4.105031166072585E-001  4.156666101667824E-001  4.208950524798249E-001  4.261892605011352E-001 
 4.315500614614877E-001  4.369782929969386E-001  4.424748032797098E-001  4.480404511507153E-001 
 4.536761062537586E-001  4.593826491714152E-001  4.651609715626260E-001  4.710119763020210E-001 
 4.769365776209942E-001  4.829357012505560E-001  4.890102845659785E-001  4.951612767332634E-001 
 5.013896388574515E-001  5.076963441327960E-001  5.140823779948277E-001  5.205487382743298E-001 
 5.270964353532517E-001  5.337264923225837E-001  5.404399451422159E-001  5.472378428028105E-001 
 5.541212474897070E-001  5.610912347488921E-001  5.681488936550558E-001  5.752953269817609E-001 
 5.825316513737544E-001  5.898589975214450E-001  5.972785103375755E-001  6.047913491361192E-001 
 6.123986878134224E-001  6.201017150316318E-001  6.279016344044216E-001  6.357996646850625E-001 
 6.437970399568553E-001  6.518950098259563E-001  6.600948396166336E-001  6.683978105689744E-001 
 6.768052200390822E-001  6.853183817017923E-001  6.939386257559340E-001  7.026672991321796E-001 
 7.115057657035023E-001  7.204554064982855E-001  7.295176199161124E-001  7.386938219462660E-001 
 7.479854463889831E-001  7.573939450794869E-001  7.669207881148390E-001  7.765674640836466E-001 
 7.863354802986560E-001  7.962263630322742E-001  8.062416577550514E-001  8.163829293771638E-001 
 8.266517624929358E-001  8.370497616284329E-001  8.475785514921759E-001  8.582397772290015E-001 
 8.690351046771210E-001  8.799662206284125E-001  8.910348330919819E-001  9.022426715610469E-001 
 9.135914872831701E-001  9.250830535338973E-001  9.367191658938356E-001  9.485016425292145E-001 
 9.604323244759806E-001  9.725130759274605E-001  9.847457845256472E-001  9.971323616561472E-001 
 1.009674742746837E+000  1.022374887570281E+000  1.035234780549945E+000  1.048256431070272E+000 
 1.061441873790648E+000  1.074793168963323E+000  1.088312402755333E+000  1.102001687574463E+000 
 1.115863162399315E+000  1.129898993113534E+000  1.144111372844224E+000  1.158502522304634E+000 
 1.173074690141146E+000  1.187830153284631E+000  1.202771217306226E+000  1.217900216777582E+000 
 1.233219515635647E+000  1.248731507552035E+000  1.264438616307041E+000  1.280343296168366E+000 
 1.296448032274596E+000  1.312755341023513E+000  1.329267770465286E+000  1.345987900700611E+000 
 1.362918344283854E+000  1.380061746631269E+000  1.397420786434354E+000  1.414998176078394E+000 
 1.432796662066282E+000  1.450819025447665E+000  1.469068082253489E+000  1.487546683936007E+000 
 1.506257717814328E+000  1.525204107525562E+000  1.544388813481649E+000  1.563814833331925E+000 
 1.583485202431516E+000  1.603402994315613E+000  1.623571321179720E+000  1.643993334365943E+000 
 1.664672224855390E+000  1.685611223766774E+000  1.706813602861274E+000  1.728282675053760E+000 
 1.750021794930442E+000  1.772034359273029E+000  1.794323807589483E+000  1.816893622651454E+000 
 1.839747331038462E+000  1.862888503688942E+000  1.886320756458198E+000  1.910047750683400E+000 
 1.934073193755669E+000  1.958400839699364E+000  1.983034489758661E+000  2.007977992991497E+000 
 2.033235246871000E+000  2.058810197894478E+000  2.084706842200057E+000  2.110929226191099E+000 
 2.137481447168453E+000  2.164367653970666E+000  2.191592047622253E+000  2.219158881990109E+000 
 2.247072464448189E+000  2.275337156550546E+000  2.303957374712821E+000  2.332937590902334E+000 
 2.362282333336823E+000  2.391996187191997E+000  2.422083795317974E+000  2.452549858964736E+000 
 2.483399138516714E+000  2.514636454236599E+000  2.546266687018528E+000  2.578294779150722E+000 
 2.610725735087739E+000  2.643564622232428E+000  2.676816571727713E+000  2.710486779258358E+000 
 2.744580505862790E+000  2.779103078755154E+000  2.814059892157704E+000  2.849456408143651E+000 
 2.885298157490637E+000  2.921590740544915E+000  2.958339828096425E+000  2.995551162264865E+000 
 3.033230557396905E+000  3.071383900974691E+000  3.110017154535786E+000  3.149136354604657E+000 
 3.188747613635902E+000  3.228857120969336E+000  3.269471143797078E+000  3.310596028142833E+000 
 3.352238199853444E+000  3.394404165602965E+000  3.437100513909330E+000  3.480333916163826E+000 
 3.524111127673519E+000  3.568438988716772E+000  3.613324425612056E+000  3.658774451800209E+000 
 3.704796168940289E+000  3.751396768019231E+000  3.798583530475453E+000  3.846363829336591E+000 
 3.894745130371551E+000  3.943734993257052E+000  3.993341072758837E+000  4.043571119927759E+000 
 4.094432983310880E+000  4.145934610177832E+000  4.198084047762594E+000  4.250889444520883E+000 
 4.304359051403384E+000  4.358501223144953E+000  4.413324419570078E+000  4.468837206914739E+000 
 4.525048259164897E+000  4.581966359411835E+000  4.639600401224516E+000  4.697959390039227E+000 
 4.757052444566703E+000  4.816888798216939E+000  4.877477800541936E+000  4.938828918696574E+000 
 5.000951738917883E+000  5.063855968022914E+000  5.127551434925438E+000  5.192048092171759E+000 
 5.257356017495786E+000  5.323485415393720E+000  5.390446618718524E+000  5.458250090294448E+000 
 5.526906424551881E+000  5.596426349182729E+000  5.666820726816654E+000  5.738100556718381E+000 
 5.810276976506346E+000  5.883361263892996E+000  5.957364838446920E+000  6.032299263377205E+000 
 6.108176247340200E+000  6.185007646269019E+000  6.262805465226069E+000  6.341581860278835E+000 
 6.421349140399320E+000  6.502119769387328E+000  6.583906367817963E+000  6.666721715013637E+000 
 6.750578751040831E+000  6.835490578732036E+000  6.921470465733081E+000  7.008531846576231E+000 
 7.096688324779384E+000  7.185953674971610E+000  7.276341845045484E+000  7.367866958336482E+000 
 7.460543315829751E+000  7.554385398394721E+000  7.649407869047707E+000  7.745625575243072E+000 
 7.843053551193167E+000  7.941707020217446E+000  8.041601397121166E+000  8.142752290603955E+000 
 8.245175505698707E+000  8.348887046241167E+000  8.453903117370535E+000  8.560240128061599E+000 
 8.667914693688617E+000  8.776943638621534E+000  8.887343998854815E+000  8.999133024669353E+000 
 9.112328183327881E+000  9.226947161804228E+000  9.343007869546977E+000  9.460528441277841E+000 
 9.579527239825241E+000  9.700022858993572E+000  9.822034126468470E+000  9.945580106758714E+000 
 1.007068010417508E+001  1.019735366584667E+001  1.032562058477523E+001  1.045550090292780E+001 
 1.058701491436834E+001  1.072018316842870E+001  1.085502647291950E+001  1.099156589738142E+001 
 1.112982277637732E+001  1.126981871282584E+001  1.141157558137685E+001  1.155511553182948E+001 
 1.170046099259303E+001  1.184763467419145E+001  1.199665957281191E+001  1.214755897389801E+001 
 1.230035645578818E+001  1.245507589339984E+001  1.261174146195989E+001  1.277037764078217E+001 
 1.293100921709235E+001  1.309366128990103E+001  1.325835927392554E+001  1.342512890356093E+001 
 1.359399623690114E+001  1.376498765981057E+001  1.393812989004692E+001  1.411344998143595E+001 
 1.429097532809861E+001  1.447073366873150E+001  1.465275309094107E+001  1.483706203563234E+001 
 1.502368930145293E+001  1.521266404929281E+001  1.540401580684079E+001  1.559777447319831E+001 
 1.579397032355116E+001  1.599263401390017E+001  1.619379658585112E+001  1.639748947146514E+001 
 1.660374449817003E+001  1.681259389373333E+001  1.702407029129802E+001  1.723820673448147E+001 
 1.745503668253858E+001  1.767459401558989E+001  1.789691303991536E+001  1.812202849331489E+001 
 1.834997555053605E+001  1.858078982877030E+001  1.881450739321820E+001  1.905116476272469E+001 
 1.929079891548527E+001  1.953344729482382E+001  1.977914781504330E+001  2.002793886734987E+001 
 2.027985932585160E+001  2.053494855363272E+001  2.079324640890401E+001  2.105479325123088E+001 
 2.131962994783957E+001  2.158779788000271E+001  2.185933894950534E+001  2.213429558519200E+001 
 2.241271074959642E+001  2.269462794565447E+001  2.298009122350160E+001  2.326914518735578E+001 
 2.356183500248692E+001  2.385820640227413E+001  2.415830569535159E+001  2.446217977284438E+001 
 2.476987611569540E+001  2.508144280208420E+001  2.539692851493941E+001  2.571638254954553E+001 
 2.603985482124539E+001  2.636739587323958E+001  2.669905688448385E+001  2.703488967768598E+001 
 2.737494672740316E+001  2.771928116824122E+001  2.806794680315717E+001  2.842099811186579E+001 
 2.877849025935236E+001  2.914047910449225E+001  2.950702120877895E+001  2.987817384516205E+001 
 3.025399500699608E+001  3.063454341710218E+001  3.101987853694366E+001  3.141006057591695E+001 
 3.180515050075952E+001  3.220521004507592E+001  3.261030171898386E+001  3.302048881888157E+001 
 3.343583543733790E+001  3.385640647310709E+001  3.428226764126909E+001  3.471348548349786E+001 
 3.515012737845856E+001  3.559226155233560E+001  3.603995708949324E+001  3.649328394326999E+001 
 3.695231294690902E+001  3.741711582462608E+001  3.788776520281642E+001  3.836433462140299E+001 
 3.884689854532699E+001  3.933553237618334E+001  3.983031246400222E+001  4.033131611917896E+001 
 4.083862162455407E+001  4.135230824764484E+001  4.187245625303122E+001  4.239914691489732E+001 
 4.293246252973055E+001  4.347248642918088E+001  4.401930299308123E+001  4.457299766263221E+001 
 4.513365695375244E+001  4.570136847059680E+001  4.627622091924489E+001  4.685830412156130E+001 
 4.744770902923069E+001  4.804452773796899E+001  4.864885350191366E+001  4.926078074819491E+001 
 4.988040509168991E+001  5.050782334996295E+001  5.114313355839339E+001  5.178643498549380E+001 
 5.243782814842105E+001  5.309741482868209E+001  5.376529808803764E+001  5.444158228460579E+001 
 5.512637308916813E+001  5.581977750168117E+001  5.652190386799506E+001  5.723286189678304E+001 
 5.795276267668356E+001  5.868171869365806E+001  5.941984384856740E+001  6.016725347496867E+001 
 6.092406435713664E+001  6.169039474831139E+001  6.246636438917559E+001  6.325209452656444E+001 
 6.404770793241047E+001  6.485332892292701E+001  6.566908337803289E+001  6.649509876102131E+001 
 6.733150413847653E+001  6.817843020044037E+001  6.903600928083316E+001  6.990437537813092E+001 
 7.078366417630301E+001  7.167401306601317E+001  7.257556116608683E+001  7.348844934524881E+001 
 7.441282024413439E+001  7.534881829757713E+001  7.629658975717729E+001  7.725628271415361E+001 
 7.822804712248315E+001  7.921203482233179E+001  8.020839956377947E+001  8.121729703084434E+001 
 8.223888486580813E+001  8.327332269384851E+001  8.432077214798072E+001  8.538139689431290E+001 