<UPF version="2.0.1">
  <PP_INFO>
    Generated in analytical, separable form
    Author: Goedecker/Hartwigsen/Hutter/Teter
    Generation date: Phys.Rev.B58, 3641 (1998); B54, 1703 (1996)
    Pseudopotential type: NC
    Element: Cl
    Functional: SLA-PW-PBX-PBC

    Suggested minimum cutoff for wavefunctions:   0. Ry
    Suggested minimum cutoff for charge density:   0. Ry
    The Pseudo was generated with a Scalar-Relativistic Calculation
    Local Potential: unknown format, L component and cutoff radius: -3   0.0000

    Valence configuration: 
    nl pn  l   occ       Rcut    Rcut US       E pseu

    Generation configuration: not available.
    Converted from CPMD format using cpmd2upf v.5.0.1 - PG 10Jul2012
    Contains atomic orbitals generated by ld1.x - use with care
  </PP_INFO>
  <!--                               -->
  <!-- END OF HUMAN READABLE SECTION -->
  <!--                               -->
  <PP_HEADER generated="Generated in analytical, separable form"
             author="Goedecker/Hartwigsen/Hutter/Teter"
             date="Phys.Rev.B58, 3641 (1998); B54, 1703 (1996)"
             comment="Contains atomic orbitals generated by ld1.x - use with care"
             element="Cl"
             pseudo_type="NC"
             relativistic="scalar"
             is_ultrasoft="F"
             is_paw="F"
             is_coulomb="F"
             has_so="F"
             has_wfc="F"
             has_gipaw="F"
             paw_as_gipaw="F"
             core_correction="F"
             functional="SLA-PW-PBX-PBC"
             z_valence="7.000000000000000E+000"
             total_psenergy="0.000000000000000E+000"
             wfc_cutoff="0.000000000000000E+000"
             rho_cutoff="0.000000000000000E+000"
             l_max="1"
             l_max_rho="0"
             l_local="-3"
             mesh_size="1157"
             number_of_wfc=" 3"
             number_of_proj="3"/>
  <PP_MESH dx="1.250000000000000E-002" mesh="1157" xmin="-7.000000000000000E+000" rmax="1.011684203162308E+002"
zmesh="1.700000000000000E+001">
    <PP_R type="real" size="1157" columns="4">
 5.364011562085390E-005  5.431482521582484E-005  5.499802161274013E-005  5.568981156242671E-005 
 5.639030315847176E-005  5.709960585411228E-005  5.781783047933757E-005  5.854508925820655E-005 
 5.928149582638297E-005  6.002716524889145E-005  6.078221403809630E-005  6.154676017190697E-005 
 6.232092311221236E-005  6.310482382354687E-005  6.389858479199164E-005  6.470233004431283E-005 
 6.551618516734137E-005  6.634027732759602E-005  6.717473529115338E-005  6.801968944376811E-005 
 6.887527181124556E-005  6.974161608007134E-005  7.061885761830005E-005  7.150713349670675E-005 
 7.240658251020477E-005  7.331734519953232E-005  7.423956387321261E-005  7.517338262978968E-005 
 7.611894738034401E-005  7.707640587129177E-005  7.804590770747009E-005  7.902760437551334E-005 
 8.002164926752317E-005  8.102819770503630E-005  8.204740696329405E-005  8.307943629581657E-005 
 8.412444695928673E-005  8.518260223874680E-005  8.625406747311194E-005  8.733901008100511E-005 
 8.843759958691603E-005  8.955000764769009E-005  9.067640807935001E-005  9.181697688425483E-005 
 9.297189227860101E-005  9.414133472026849E-005  9.532548693701804E-005  9.652453395504271E-005 
 9.773866312787846E-005  9.896806416567889E-005  1.002129291648573E-004  1.014734526381025E-004 
 1.027498315447717E-004  1.040422653216659E-004  1.053509559141923E-004  1.066761078079185E-004 
 1.080179280605239E-004  1.093766263341530E-004  1.107524149281751E-004  1.121455088123574E-004 
 1.135561256604535E-004  1.149844858842157E-004  1.164308126678351E-004  1.178953320028141E-004 
 1.193782727232785E-004  1.208798665417329E-004  1.224003480852664E-004  1.239399549322138E-004 
 1.254989276492770E-004  1.270775098291150E-004  1.286759481284050E-004  1.302944923063834E-004 
 1.319333952638708E-004  1.335929130827886E-004  1.352733050661727E-004  1.369748337786890E-004 
 1.386977650876608E-004  1.404423682046102E-004  1.422089157273237E-004  1.439976836824461E-004 
 1.458089515686093E-004  1.476430024001058E-004  1.495001227511093E-004  1.513806028004529E-004 
 1.532847363769705E-004  1.552128210054072E-004  1.571651579529089E-004  1.591420522760957E-004 
 1.611438128687276E-004  1.631707525099699E-004  1.652231879132654E-004  1.673014397758216E-004 
 1.694058328287202E-004  1.715366958876569E-004  1.736943619043204E-004  1.758791680184153E-004 
 1.780914556103421E-004  1.803315703545378E-004  1.825998622734888E-004  1.848966857924224E-004 
 1.872223997946863E-004  1.895773676778251E-004  1.919619574103617E-004  1.943765415892931E-004 
 1.968214974983101E-004  1.992972071667477E-004  2.018040574292785E-004  2.043424399863561E-004 
 2.069127514654193E-004  2.095153934828665E-004  2.121507727068077E-004  2.148193009206084E-004 
 2.175213950872313E-004  2.202574774143871E-004  2.230279754205063E-004  2.258333220015390E-004 
 2.286739554985959E-004  2.315503197664402E-004  2.344628642428406E-004  2.374120440187976E-004 
 2.403983199096510E-004  2.434221585270845E-004  2.464840323520341E-004  2.495844198085141E-004 
 2.527238053383729E-004  2.559026794769864E-004  2.591215389299063E-004  2.623808866504707E-004 
 2.656812319183921E-004  2.690230904193337E-004  2.724069843254850E-004  2.758334423771536E-004 
 2.793029999653811E-004  2.828161992155994E-004  2.863735890723390E-004  2.899757253850030E-004 
 2.936231709947186E-004  2.973164958222832E-004  3.010562769572150E-004  3.048430987479250E-004 
 3.086775528930226E-004  3.125602385337692E-004  3.164917623476953E-004  3.204727386433958E-004 
 3.245037894565160E-004  3.285855446469471E-004  3.327186419972416E-004  3.369037273122697E-004 
 3.411414545201263E-004  3.454324857743089E-004  3.497774915571820E-004  3.541771507847388E-004 
 3.586321509126846E-004  3.631431880438533E-004  3.677109670369742E-004  3.723362016168087E-004 
 3.770196144856696E-004  3.817619374363463E-004  3.865639114664482E-004  3.914262868941867E-004 
 3.963498234756157E-004  4.013352905233428E-004  4.063834670267372E-004  4.114951417736481E-004 
 4.166711134736541E-004  4.219121908828646E-004  4.272191929302877E-004  4.325929488457904E-004 
 4.380342982896673E-004  4.435440914838394E-004  4.491231893447036E-004  4.547724636176512E-004 
 4.604927970132808E-004  4.662850833453237E-004  4.721502276703032E-004  4.780891464289536E-004 
 4.841027675894136E-004  4.901920307922241E-004  4.963578874971492E-004  5.026013011318435E-004 
 5.089232472423903E-004  5.153247136457311E-004  5.218067005840152E-004  5.283702208808897E-004 
 5.350163000997539E-004  5.417459767040082E-004  5.485603022193133E-004  5.554603413978948E-004 
 5.624471723849125E-004  5.695218868869225E-004  5.766855903424604E-004  5.839394020947654E-004 
 5.912844555666816E-004  5.987218984377574E-004  6.062528928235729E-004  6.138786154573238E-004 
 6.216002578736856E-004  6.294190265949957E-004  6.373361433197742E-004  6.453528451136163E-004 
 6.534703846024886E-004  6.616900301684509E-004  6.700130661478457E-004  6.784407930319784E-004 
 6.869745276703201E-004  6.956156034762717E-004  7.043653706355072E-004  7.132251963169470E-004 
 7.221964648863793E-004  7.312805781227696E-004  7.404789554372940E-004  7.497930340951217E-004 
 7.592242694399925E-004  7.687741351216172E-004  7.784441233259369E-004  7.882357450082840E-004 
 7.981505301294667E-004  8.081900278948319E-004  8.183558069963313E-004  8.286494558576308E-004 
 8.390725828823091E-004  8.496268167051693E-004  8.603138064467190E-004  8.711352219708478E-004 
 8.820927541457473E-004  8.931881151081145E-004  9.044230385306725E-004  9.157992798930641E-004 
 9.273186167561470E-004  9.389828490397417E-004  9.507937993038749E-004  9.627533130335546E-004 
 9.748632589271326E-004  9.871255291882925E-004  9.995420398217097E-004  1.012114730932434E-003 
 1.024845567029030E-003  1.037736537330539E-003  1.050789656077297E-003  1.064006962845665E-003 
 1.077390522866716E-003  1.090942427348934E-003  1.104664793804965E-003  1.118559766382486E-003 
 1.132629516199231E-003  1.146876241682235E-003  1.161302168911340E-003  1.175909551967025E-003 
 1.190700673282611E-003  1.205677844000897E-003  1.220843404335279E-003  1.236199723935414E-003 
 1.251749202257481E-003  1.267494268939104E-003  1.283437384178987E-003  1.299581039121320E-003 
 1.315927756245035E-003  1.332480089757939E-003  1.349240625995819E-003  1.366211983826563E-003 
 1.383396815059359E-003  1.400797804859052E-003  1.418417672165698E-003  1.436259170119414E-003 
 1.454325086490553E-003  1.472618244115303E-003  1.491141501336761E-003  1.509897752451555E-003 
 1.528889928162079E-003  1.548120996034430E-003  1.567593960962087E-003  1.587311865635440E-003 
 1.607277791017210E-003  1.627494856823857E-003  1.647966222013048E-003  1.668695085277241E-003 
 1.689684685543496E-003  1.710938302479557E-003  1.732459257006311E-003  1.754250911816689E-003 
 1.776316671901088E-003  1.798659985079417E-003  1.821284342539817E-003  1.844193279384170E-003 
 1.867390375180468E-003  1.890879254522122E-003  1.914663587594319E-003  1.938747090747492E-003 
 1.963133527078005E-003  1.987826707016150E-003  2.012830488921531E-003  2.038148779685943E-003 
 2.063785535343826E-003  2.089744761690410E-003  2.116030514907627E-003  2.142646902197896E-003 
 2.169598082425883E-003  2.196888266768331E-003  2.224521719372064E-003  2.252502758020274E-003 
 2.280835754807177E-003  2.309525136821166E-003  2.338575386836548E-003  2.367991044013991E-003 
 2.397776704609778E-003  2.427937022693973E-003  2.458476710877642E-003  2.489400541049195E-003 
 2.520713345120011E-003  2.552420015779434E-003  2.584525507259260E-003  2.617034836107854E-003 
 2.649953081973990E-003  2.683285388400553E-003  2.717036963628242E-003  2.751213081409352E-003 
 2.785819081831819E-003  2.820860372153616E-003  2.856342427647646E-003  2.892270792457270E-003 
 2.928651080462585E-003  2.965488976157611E-003  3.002790235538495E-003  3.040560687002905E-003 
 3.078806232260730E-003  3.117532847256225E-003  3.156746583101773E-003  3.196453567023382E-003 
 3.236660003318073E-003  3.277372174323319E-003  3.318596441398669E-003  3.360339245919723E-003 
 3.402607110284617E-003  3.445406638933149E-003  3.488744519378750E-003  3.532627523253410E-003 
 3.577062507365763E-003  3.622056414772484E-003  3.667616275863143E-003  3.713749209458730E-003 
 3.760462423923976E-003  3.807763218293680E-003  3.855658983413198E-003  3.904157203093271E-003 
 3.953265455279399E-003  4.002991413235895E-003  4.053342846744858E-003  4.104327623320215E-003 
 4.155953709437035E-003  4.208229171776309E-003  4.261162178485382E-003  4.314761000454243E-003 
 4.369034012607876E-003  4.423989695214847E-003  4.479636635212374E-003  4.535983527548044E-003 
 4.593039176538422E-003  4.650812497244746E-003  4.709312516865914E-003  4.768548376149017E-003 
 4.828529330817578E-003  4.889264753017798E-003  4.950764132782965E-003  5.013037079516285E-003 
 5.076093323492384E-003  5.139942717377673E-003  5.204595237769842E-003  5.270060986756748E-003 
 5.336350193494854E-003  5.403473215807584E-003  5.471440541803737E-003  5.540262791516276E-003 
 5.609950718561745E-003  5.680515211820519E-003  5.751967297138240E-003  5.824318139048608E-003 
 5.897579042517868E-003  5.971761454711240E-003  6.046876966781553E-003  6.122937315680393E-003 
 6.199954385992023E-003  6.277940211790366E-003  6.356906978519371E-003  6.436867024896996E-003 
 6.517832844843171E-003  6.599817089431988E-003  6.682832568868457E-003  6.766892254490143E-003 
 6.852009280793939E-003  6.938196947488384E-003  7.025468721571746E-003  7.113838239436276E-003 
 7.203319308998938E-003  7.293925911858895E-003  7.385672205482191E-003  7.478572525413861E-003 
 7.572641387517896E-003  7.667893490245394E-003  7.764343716931190E-003  7.862007138119438E-003 
 7.960899013918396E-003  8.061034796384852E-003  8.162430131938547E-003  8.265100863806950E-003 
 8.369063034500801E-003  8.474332888320783E-003  8.580926873895731E-003  8.688861646752756E-003 
 8.798154071919711E-003  8.908821226560388E-003  9.020880402642853E-003  9.134349109641353E-003 
 9.249245077272216E-003  9.365586258264134E-003  9.483390831163341E-003  9.602677203174025E-003 
 9.723464013034503E-003  9.845770133929562E-003  9.969614676439420E-003  1.009501699152581E-002 
 1.022199667355560E-002  1.035057356336245E-002  1.048076775134697E-002  1.061259958061593E-002 
 1.074608965016086E-002  1.088125881807673E-002  1.101812820482101E-002  1.115671919651384E-002 
 1.129705344827966E-002  1.143915288763080E-002  1.158303971789377E-002  1.172873642167854E-002 
 1.187626576439150E-002  1.202565079779259E-002  1.217691486359722E-002  1.233008159712340E-002 
 1.248517493098489E-002  1.264221909883063E-002  1.280123863913135E-002  1.296225839901376E-002 
 1.312530353814293E-002  1.329039953265358E-002  1.345757217913074E-002  1.362684759864052E-002 
 1.379825224081163E-002  1.397181288796813E-002  1.414755665931425E-002  1.432551101517181E-002 
 1.450570376127097E-002  1.468816305309492E-002  1.487291740027921E-002  1.505999567106648E-002 
 1.524942709681715E-002  1.544124127657690E-002  1.563546818170157E-002  1.583213816054023E-002 
 1.603128194317722E-002  1.623293064623372E-002  1.643711577772985E-002  1.664386924200782E-002 
 1.685322334471707E-002  1.706521079786208E-002  1.727986472491370E-002  1.749721866598474E-002 
 1.771730658307072E-002  1.794016286535643E-002  1.816582233458941E-002  1.839432025052082E-002 
 1.862569231641490E-002  1.885997468462769E-002  1.909720396225587E-002  1.933741721685672E-002 
 1.958065198223998E-002  1.982694626433261E-002  2.007633854711728E-002  2.032886779864556E-002 
 2.058457347712679E-002  2.084349553709346E-002  2.110567443564422E-002  2.137115113876538E-002 
 2.163996712773191E-002  2.191216440558900E-002  2.218778550371512E-002  2.246687348846759E-002 
 2.274947196791184E-002  2.303562509863524E-002  2.332537759264665E-002  2.361877472436275E-002 
 2.391586233768231E-002  2.421668685314933E-002  2.452129527520638E-002  2.482973519953915E-002 
 2.514205482051334E-002  2.545830293870514E-002  2.577852896852643E-002  2.610278294594589E-002 
 2.643111553630716E-002  2.676357804224551E-002  2.710022241170388E-002  2.744110124604991E-002 
 2.778626780829499E-002  2.813577603141672E-002  2.848968052678604E-002  2.884803659270037E-002 
 2.921090022302410E-002  2.957832811593772E-002  2.995037768279702E-002  3.032710705710378E-002 
 3.070857510358918E-002  3.109484142741162E-002  3.148596638347002E-002  3.188201108583455E-002 
 3.228303741729568E-002  3.268910803903362E-002  3.310028640040917E-002  3.351663674887784E-002 
 3.393822414002864E-002  3.436511444774918E-002  3.479737437451854E-002  3.523507146182975E-002 
 3.567827410074315E-002  3.612705154257283E-002  3.658147390970708E-002  3.704161220656531E-002 
 3.750753833069256E-002  3.797932508399366E-002  3.845704618410867E-002  3.894077627593143E-002 
 3.943059094327291E-002  3.992656672067145E-002  4.042878110535132E-002  4.093731256933190E-002 
 4.145224057168904E-002  4.197364557097075E-002  4.250160903776896E-002  4.303621346744953E-002 
 4.357754239304225E-002  4.412568039829307E-002  4.468071313088052E-002  4.524272731579829E-002 
 4.581181076890619E-002  4.638805241065158E-002  4.697154227996338E-002  4.756237154832075E-002 
 4.816063253399895E-002  4.876641871649416E-002  4.937982475112986E-002  5.000094648384697E-002 
 5.062988096617989E-002  5.126672647042107E-002  5.191158250497623E-002  5.256454982991271E-002 
 5.322573047270353E-002  5.389522774416929E-002  5.457314625462078E-002  5.525959193020448E-002 
 5.595467202945378E-002  5.665849516004836E-002  5.737117129578430E-002  5.809281179375775E-002 
 5.882352941176473E-002  5.956343832591970E-002  6.031265414849584E-002  6.107129394598974E-002 
 6.183947625741321E-002  6.261732111281527E-002  6.340495005203717E-002  6.420248614370307E-002 
 6.501005400444990E-002  6.582777981839888E-002  6.665579135687216E-002  6.749421799835721E-002 
 6.834319074872255E-002  6.920284226168770E-002  7.007330685955050E-002  7.095472055417536E-002 
 7.184722106824531E-002  7.275094785678149E-002  7.366604212893323E-002  7.459264687004234E-002 
 7.553090686398482E-002  7.648096871579362E-002  7.744298087456601E-002  7.841709365665901E-002 
 7.940345926917669E-002  8.040223183375277E-002  8.141356741063246E-002  8.243762402305728E-002 
 8.347456168195634E-002  8.452454241094853E-002  8.558773027165893E-002  8.666429138935389E-002 
 8.775439397889830E-002  8.885820837103960E-002  8.997590703902232E-002  9.110766462553728E-002 
 9.225365797000996E-002  9.341406613623200E-002  9.458907044034021E-002  9.577885447914769E-002 
 9.698360415883112E-002  9.820350772397902E-002  9.943875578700542E-002  1.006895413579332E-001 
 1.019560598745527E-001  1.032385092329588E-001  1.045370898184729E-001  1.058520045369535E-001 
 1.071834588465006E-001  1.085316607895589E-001  1.098968210254249E-001  1.112791528631630E-001 
 1.126788722949351E-001  1.140961980297503E-001  1.155313515276381E-001  1.169845570342525E-001 
 1.184560416159104E-001  1.199460351950715E-001  1.214547705862640E-001  1.229824835324621E-001 
 1.245294127419221E-001  1.260957999254800E-001  1.276818898343202E-001  1.292879302982178E-001 
 1.309141722642629E-001  1.325608698360712E-001  1.342282803134885E-001  1.359166642327944E-001 
 1.376262854074113E-001  1.393574109691259E-001  1.411103114098294E-001  1.428852606237817E-001 
 1.446825359504089E-001  1.465024182176372E-001  1.483451917857735E-001  1.502111445919370E-001 
 1.521005681950498E-001  1.540137578213943E-001  1.559510124107416E-001  1.579126346630630E-001 
 1.598989310858263E-001  1.619102120418885E-001  1.639467917979913E-001  1.660089885738648E-001 
 1.680971245919509E-001  1.702115261277507E-001  1.723525235608060E-001  1.745204514263217E-001 
 1.767156484674373E-001  1.789384576881568E-001  1.811892264069431E-001  1.834683063109879E-001 
 1.857760535111629E-001  1.881128285976634E-001  1.904789966963507E-001  1.928749275258044E-001 
 1.953009954550911E-001  1.977575795622606E-001  2.002450636935777E-001  2.027638365234986E-001 
 2.053142916154025E-001  2.078968274830865E-001  2.105118476530341E-001  2.131597607274673E-001 
 2.158409804481909E-001  2.185559257612415E-001  2.213050208823477E-001  2.240886953632154E-001 
 2.269073841586457E-001  2.297615276944973E-001  2.326515719365047E-001  2.355779684599604E-001 
 2.385411745202751E-001  2.415416531244244E-001  2.445798731032947E-001  2.476563091849390E-001 
 2.507714420687541E-001  2.539257585005910E-001  2.571197513488094E-001  2.603539196812903E-001 
 2.636287688434157E-001  2.669448105370297E-001  2.703025629003936E-001  2.737025505891455E-001 
 2.771453048582790E-001  2.806313636451532E-001  2.841612716535459E-001  2.877355804387651E-001 
 2.913548484938304E-001  2.950196413367389E-001  2.987305315988285E-001  3.024880991142522E-001 
 3.062929310105795E-001  3.101456218005350E-001  3.140467734748928E-001  3.179969955965394E-001 
 3.219969053957177E-001  3.260471278664721E-001  3.301482958643036E-001  3.343010502050556E-001 
 3.385060397650431E-001  3.427639215824398E-001  3.470753609599423E-001  3.514410315687251E-001 
 3.558616155537029E-001  3.603378036401170E-001  3.648702952414628E-001  3.694597985687745E-001 
 3.741070307412844E-001  3.788127178984743E-001  3.835775953135362E-001  3.884024075082606E-001 
 3.932879083693690E-001  3.982348612663106E-001  4.032440391705401E-001  4.083162247762964E-001 
 4.134522106228998E-001  4.186527992185882E-001  4.239188031659101E-001  4.292510452886962E-001 
 4.346503587606266E-001  4.401175872354167E-001  4.456535849786382E-001  4.512592170012020E-001 
 4.569353591945163E-001  4.626828984673468E-001  4.685027328843986E-001  4.743957718066397E-001 
 4.803629360333915E-001  4.864051579462044E-001  4.925233816545452E-001  4.987185631433164E-001 
 5.049916704222293E-001  5.113436836770593E-001  5.177755954228007E-001  5.242884106587494E-001 
 5.308831470255369E-001  5.375608349641370E-001  5.443225178768764E-001  5.511692522904668E-001 
 5.581021080210899E-001  5.651221683415593E-001  5.722305301505816E-001  5.794283041441524E-001 
 5.867166149891015E-001  5.940966014988269E-001  6.015694168112355E-001  6.091362285689232E-001 
 6.167982191016224E-001  6.245565856109419E-001  6.324125403574330E-001  6.403673108500085E-001 
 6.484221400377415E-001  6.565782865040808E-001  6.648370246635052E-001  6.731996449606545E-001 
 6.816674540719645E-001  6.902417751098361E-001  6.989239478293768E-001  7.077153288377376E-001 
 7.166172918060870E-001  7.256312276842507E-001  7.347585449180478E-001  7.440006696693666E-001 
 7.533590460390025E-001  7.628351362923024E-001  7.724304210876485E-001  7.821463997078111E-001 
 7.919845902942174E-001  8.019465300841626E-001  8.120337756510060E-001  8.222479031473906E-001 
 8.325905085515181E-001  8.430632079165257E-001  8.536676376229956E-001  8.644054546346440E-001 
 8.752783367572261E-001  8.862879829006937E-001  8.974361133446568E-001  9.087244700071780E-001 
 9.201548167169517E-001  9.317289394889073E-001  9.434486468032750E-001  9.553157698881672E-001 
 9.673321630057096E-001  9.794997037417736E-001  9.918202932993554E-001  1.004295856795639E+000 
 1.016928343562803E+000  1.029719727452605E+000  1.042672007144803E+000  1.055787206459450E+000 
 1.069067374673122E+000  1.082514586839121E+000  1.096130944111707E+000  1.109918574074405E+000 
 1.123879631072450E+000  1.138016296549401E+000  1.152330779388000E+000  1.166825316255314E+000 
 1.181502171952216E+000  1.196363639767272E+000  1.211412041835061E+000  1.226649729499025E+000 
 1.242079083678860E+000  1.257702515242550E+000  1.273522465383063E+000  1.289541405999793E+000 
 1.305761840084803E+000  1.322186302113919E+000  1.338817358442749E+000  1.355657607707682E+000 
 1.372709681231925E+000  1.389976243436660E+000  1.407459992257362E+000  1.425163659565352E+000 
 1.443090011594668E+000  1.461241849374285E+000  1.479622009165787E+000  1.498233362906535E+000 
 1.517078818658416E+000  1.536161321062234E+000  1.555483851797812E+000  1.575049430049890E+000 
 1.594861112979877E+000  1.614921996203536E+000  1.635235214274687E+000  1.655803941174980E+000 
 1.676631390809841E+000  1.697720817510649E+000  1.719075516543233E+000  1.740698824622763E+000 
 1.762594120435119E+000  1.784764825164820E+000  1.807214403029584E+000  1.829946361821628E+000 
 1.852964253455762E+000  1.876271674524383E+000  1.899872266859453E+000  1.923769718101540E+000 
 1.947967762276019E+000  1.972470180376527E+000  1.997280800955739E+000  2.022403500723600E+000 
 2.047842205153062E+000  2.073600889093445E+000  2.099683577391523E+000  2.126094345520409E+000 
 2.152837320216353E+000  2.179916680123565E+000  2.207336656447119E+000  2.235101533614105E+000 
 2.263215649943068E+000  2.291683398321882E+000  2.320509226894150E+000  2.349697639754233E+000 
 2.379253197651024E+000  2.409180518700578E+000  2.439484279107692E+000  2.470169213896589E+000 
 2.501240117650753E+000  2.532701845262114E+000  2.564559312689620E+000  2.596817497727368E+000 
 2.629481440782403E+000  2.662556245662282E+000  2.696047080372558E+000  2.729959177924294E+000 
 2.764297837151724E+000  2.799068423540218E+000  2.834276370064638E+000  2.869927178038261E+000 
 2.906026417972366E+000  2.942579730446634E+000  2.979592826990510E+000  3.017071490975631E+000 
 3.055021578519498E+000  3.093449019400499E+000  3.132359817984450E+000  3.171760054162798E+000 
 3.211655884302605E+000  3.252053542208496E+000  3.292959340096715E+000  3.334379669581401E+000 
 3.376321002673308E+000  3.418789892791061E+000  3.461792975785142E+000  3.505336970974764E+000 
 3.549428682197765E+000  3.594074998873728E+000  3.639282897080467E+000  3.685059440644050E+000 
 3.731411782242549E+000  3.778347164523641E+000  3.825872921236295E+000  3.873996478376692E+000 
 3.922725355348542E+000  3.972067166138009E+000  4.022029620503421E+000  4.072620525179921E+000 
 4.123847785099289E+000  4.175719404625114E+000  4.228243488803475E+000  4.281428244629392E+000 
 4.335281982329168E+000  4.389813116658881E+000  4.445030168219216E+000  4.500941764786817E+000 
 4.557556642662406E+000  4.614883648035833E+000  4.672931738368318E+000  4.731709983792078E+000 
 4.791227568527538E+000  4.851493792318414E+000  4.912518071884781E+000  4.974309942394475E+000 
 5.036879058952980E+000  5.100235198112053E+000  5.164388259397344E+000  5.229348266855196E+000 
 5.295125370618935E+000  5.361729848494850E+000  5.429172107568111E+000  5.497462685828921E+000 
 5.566612253819067E+000  5.636631616299233E+000  5.707531713937262E+000  5.779323625017651E+000 
 5.852018567172580E+000  5.925627899134654E+000  6.000163122511752E+000  6.075635883584168E+000 
 6.152057975124366E+000  6.229441338239643E+000  6.307798064237915E+000  6.387140396517041E+000 
 6.467480732477860E+000  6.548831625461315E+000  6.631205786709955E+000  6.714616087354061E+000 
 6.799075560422810E+000  6.884597402880701E+000  6.971194977689608E+000  7.058881815896791E+000 
 7.147671618749116E+000  7.237578259833920E+000  7.328615787246791E+000  7.420798425786598E+000 
 7.514140579178171E+000  7.608656832322881E+000  7.704361953577571E+000  7.801270897062157E+000 
 7.899398804996207E+000  7.998761010064999E+000  8.099373037815219E+000  8.201250609080901E+000 
 8.304409642439824E+000  8.408866256700824E+000  8.514636773422412E+000  8.621737719463011E+000 
 8.730185829563338E+000  8.839998048961235E+000  8.951191536039389E+000  9.063783665006397E+000 
 9.177792028611478E+000  9.293234440893388E+000  9.410128939963922E+000  9.528493790826374E+000 
 9.648347488229520E+000  9.769708759557417E+000  9.892596567755623E+000  1.001703011429418E+001 
 1.014302884216790E+001  1.027061243893437E+001  1.039980083979014E+001  1.053061423068570E+001 
 1.066307305147949E+001  1.079719799913176E+001  1.093301003093848E+001  1.107053036780591E+001 
 1.120978049756648E+001  1.135078217833627E+001  1.149355744191476E+001  1.163812859722739E+001 
 1.178451823381128E+001  1.193274922534500E+001  1.208284473322255E+001  1.223482821017239E+001 
 1.238872340392203E+001  1.254455436090859E+001  1.270234543003614E+001  1.286212126648025E+001 
 1.302390683554042E+001  1.318772741654100E+001  1.335360860678107E+001  1.352157632553406E+001 
 1.369165681809778E+001  1.386387665989521E+001  1.403826276062704E+001  1.421484236847628E+001 
 1.439364307436592E+001  1.457469281627002E+001  1.475801988357909E+001  1.494365292152041E+001 
 1.513162093563382E+001  1.532195329630394E+001  1.551467974334937E+001  1.570983039066954E+001 
 1.590743573095016E+001  1.610752664042768E+001  1.631013438371378E+001  1.651529061868056E+001 
 1.672302740140711E+001  1.693337719118842E+001  1.714637285560707E+001  1.736204767566897E+001 
 1.758043535100356E+001  1.780157000512940E+001  1.802548619078614E+001  1.825221889533332E+001 
 1.848180354621732E+001  1.871427601650694E+001  1.894967263049862E+001  1.918803016939224E+001 
 1.942938587703817E+001  1.967377746575679E+001  1.992124312223103E+001  2.017182151347320E+001 
 2.042555179286675E+001  2.068247360628405E+001  2.094262709828114E+001  2.120605291837045E+001 
 2.147279222737229E+001  2.174288670384641E+001  2.201637855060424E+001  2.229331050130329E+001 
 2.257372582712425E+001  2.285766834353228E+001  2.314518241712330E+001  2.343631297255623E+001 
 2.373110549957268E+001  2.402960606010474E+001  2.433186129547228E+001  2.463791843367082E+001 
 2.494782529675086E+001  2.526163030829025E+001  2.557938250096051E+001  2.590113152418817E+001 
 2.622692765191277E+001  2.655682179044209E+001  2.689086548640643E+001  2.722911093481292E+001 
 2.757161098720100E+001  2.791841915990073E+001  2.826958964239467E+001  2.862517730578515E+001 
 2.898523771136805E+001  2.934982711931424E+001  2.971900249746053E+001  3.009282153021084E+001 
 3.047134262754955E+001  3.085462493416826E+001  3.124272833870712E+001  3.163571348311276E+001 
 3.203364177211350E+001  3.243657538281407E+001  3.284457727441094E+001  3.325771119802972E+001 
 3.367604170668655E+001  3.409963416537450E+001  3.452855476127702E+001  3.496287051410989E+001 
 3.540264928659307E+001  3.584795979505457E+001  3.629887162016728E+001  3.675545521782126E+001 
 3.721778193013260E+001  3.768592399659064E+001  3.815995456534579E+001  3.863994770463881E+001 
 3.912597841437426E+001  3.961812263783938E+001  4.011645727357033E+001  4.062106018736787E+001 
 4.113201022446387E+001  4.164938722184118E+001  4.217327202070823E+001  4.270374647913066E+001 
 4.324089348482195E+001  4.378479696809453E+001  4.433554191497424E+001  4.489321438047951E+001 
 4.545790150206764E+001  4.602969151325034E+001  4.660867375738012E+001  4.719493870161057E+001 
 4.778857795103200E+001  4.838968426298485E+001  4.899835156155341E+001  4.961467495224139E+001 
 5.023875073683249E+001  5.087067642843775E+001  5.151055076673212E+001  5.215847373338285E+001 
 5.281454656767167E+001  5.347887178231371E+001  5.415155317947535E+001  5.483269586699343E+001 
 5.552240627479876E+001  5.622079217154574E+001  5.692796268145162E+001  5.764402830134730E+001 
 5.836910091794272E+001  5.910329382530947E+001  5.984672174258301E+001  6.059950083188793E+001 
 6.136174871648847E+001  6.213358449916736E+001  6.291512878083607E+001  6.370650367937860E+001 
 6.450783284873292E+001  6.531924149821207E+001  6.614085641206827E+001  6.697280596930352E+001 
 6.781522016372874E+001  6.866823062427567E+001  6.953197063556424E+001  7.040657515872844E+001 
 7.129218085250456E+001  7.218892609458393E+001  7.309695100323511E+001  7.401639745919745E+001 
 7.494740912785024E+001  7.589013148166102E+001  7.684471182291546E+001  7.781129930673403E+001 
 7.879004496437760E+001  7.978110172684637E+001  8.078462444877594E+001  8.180076993263323E+001 
 8.282969695321745E+001  8.387156628246896E+001  8.492654071459003E+001  8.599478509148223E+001 
 8.707646632850273E+001  8.817175344054549E+001  8.928081756845017E+001  9.040383200574308E+001 