<UPF version="2.0.1">
  <PP_INFO>
    Generated in analytical, separable form
    Author: Goedecker/Hartwigsen/Hutter/Teter
    Generation date: Phys.Rev.B58, 3641 (1998); B54, 1703 (1996)
    Pseudopotential type: NC
    Element: As
    Functional: SLA-PW-PBX-PBC

    Suggested minimum cutoff for wavefunctions:   0. Ry
    Suggested minimum cutoff for charge density:   0. Ry
    The Pseudo was generated with a Non-Relativistic Calculation
    Local Potential: unknown format, L component and cutoff radius: -3   0.0000

    Valence configuration: 
    nl pn  l   occ       Rcut    Rcut US       E pseu

    Generation configuration: not available.
    Converted from CPMD format using cpmd2upf v.5.0.1 - PG 10Jul2012
    Contains atomic orbitals generated by ld1.x - use with care
  </PP_INFO>
  <!--                               -->
  <!-- END OF HUMAN READABLE SECTION -->
  <!--                               -->
  <PP_HEADER generated="Generated in analytical, separable form"
             author="Goedecker/Hartwigsen/Hutter/Teter"
             date="Phys.Rev.B58, 3641 (1998); B54, 1703 (1996)"
             comment="Contains atomic orbitals generated by ld1.x - use with care"
             element="As"
             pseudo_type="NC"
             relativistic="no"
             is_ultrasoft="F"
             is_paw="F"
             is_coulomb="F"
             has_so="F"
             has_wfc="F"
             has_gipaw="F"
             paw_as_gipaw="F"
             core_correction="F"
             functional="SLA-PW-PBX-PBC"
             z_valence="5.000000000000000E+000"
             total_psenergy="0.000000000000000E+000"
             wfc_cutoff="0.000000000000000E+000"
             rho_cutoff="0.000000000000000E+000"
             l_max="2"
             l_max_rho="0"
             l_local="-3"
             mesh_size="1209"
             number_of_wfc=" 3"
             number_of_proj="6"/>
  <PP_MESH dx="1.250000000000000E-002" mesh="1209" xmin="-7.000000000000000E+000" rmax="9.983236591769230E+001"
zmesh="3.300000000000000E+001">
    <PP_R type="real" size="1209" columns="4">
 2.763278683498534E-005  2.798036450512189E-005  2.833231416413885E-005  2.868869080488648E-005 
 2.904955011194000E-005  2.941494847030027E-005  2.978494297420420E-005  3.015959143604580E-005 
 3.053895239540941E-005  3.092308512821681E-005  3.131204965598900E-005  3.170590675522480E-005 
 3.210471796689728E-005  3.250854560606960E-005  3.291745277163206E-005  3.333150335616116E-005 
 3.375076205590313E-005  3.417529438088280E-005  3.460516666513962E-005  3.504044607709266E-005 
 3.548120063003559E-005  3.592749919276403E-005  3.637941150033639E-005  3.683700816497014E-005 
 3.730036068707518E-005  3.776954146642574E-005  3.824462381347317E-005  3.872568196080074E-005 
 3.921279107472267E-005  3.970602726702909E-005  4.020546760687853E-005  4.071119013284021E-005 
 4.122327386508769E-005  4.174179881774597E-005  4.226684601139390E-005  4.279849748572368E-005 
 4.333683631235983E-005  4.388194660783926E-005  4.443391354675463E-005  4.499282337506324E-005 
 4.555876342356280E-005  4.613182212153732E-005  4.671208901057425E-005  4.729965475855552E-005 
 4.789461117382476E-005  4.849705121953225E-005  4.910706902816081E-005  4.972475991623412E-005 
 5.035022039921012E-005  5.098354820656185E-005  5.162484229704769E-005  5.227420287417401E-005 
 5.293173140185211E-005  5.359753062025214E-005  5.427170456185666E-005  5.495435856771562E-005 
 5.564559930390628E-005  5.634553477820003E-005  5.705427435693871E-005  5.777192878212353E-005 
 5.849861018871846E-005  5.923443212217173E-005  5.997950955615748E-005  6.073395891054058E-005 
 6.149789806956770E-005  6.227144640028664E-005  6.305472477119786E-005  6.384785557114042E-005 
 6.465096272841539E-005  6.546417173015014E-005  6.628760964190561E-005  6.712140512753082E-005 
 6.796568846926676E-005  6.882059158810323E-005  6.968624806439200E-005  7.056279315871860E-005 
 7.145036383303736E-005  7.234909877207192E-005  7.325913840498495E-005  7.418062492732069E-005 
 7.511370232322299E-005  7.605851638793329E-005  7.701521475057146E-005  7.798394689720302E-005 
 7.896486419419691E-005  7.995811991187642E-005  8.096386924846820E-005  8.198226935435233E-005 
 8.301347935661723E-005  8.405766038392389E-005  8.511497559168220E-005  8.618559018754447E-005 
 8.726967145721949E-005  8.836738879061114E-005  8.947891370828626E-005  9.060441988827456E-005 
 9.174408319320652E-005  9.289808169779221E-005  9.406659571664572E-005  9.524980783246001E-005 
 9.644790292453536E-005  9.766106819766747E-005  9.888949321139843E-005  1.001333699096358E-004 
 1.013928926506446E-004  1.026682582374155E-004  1.039596659484162E-004  1.052673175687289E-004 
 1.065914174215797E-004  1.079321724002645E-004  1.092897920004767E-004  1.106644883530407E-004 
 1.120564762570585E-004  1.134659732134721E-004  1.148931994590487E-004  1.163383780007928E-004 
 1.178017346507918E-004  1.192834980614995E-004  1.207838997614633E-004  1.223031741915018E-004 
 1.238415587413353E-004  1.253992937866799E-004  1.269766227268054E-004  1.285737920225679E-004 
 1.301910512349194E-004  1.318286530639021E-004  1.334868533881335E-004  1.351659113047879E-004 
 1.368660891700808E-004  1.385876526402628E-004  1.403308707131287E-004  1.420960157700488E-004 
 1.438833636185296E-004  1.456931935353088E-004  1.475257883099928E-004  1.493814342892440E-004 
 1.512604214215217E-004  1.531630433023883E-004  1.550895972203835E-004  1.570403842034765E-004 
 1.590157090661026E-004  1.610158804567902E-004  1.630412109063885E-004  1.650920168769009E-004 
 1.671686188109325E-004  1.692713411817606E-004  1.714005125440336E-004  1.735564655851086E-004 
 1.757395371770347E-004  1.779500684291895E-004  1.801884047415786E-004  1.824548958588048E-004 
 1.847498959247163E-004  1.870737635377426E-004  1.894268618069261E-004  1.918095584086590E-004 
 1.942222256441328E-004  1.966652404975117E-004  1.991389846948369E-004  2.016438447636719E-004 
 2.041802120934990E-004  2.067484829968735E-004  2.093490587713495E-004  2.119823457621823E-004 
 2.146487554258218E-004  2.173487043942030E-004  2.200826145398452E-004  2.228509130417708E-004 
 2.256540324522528E-004  2.284924107644021E-004  2.313664914806049E-004  2.342767236818203E-004 
 2.372235620977507E-004  2.402074671778940E-004  2.432289051634895E-004  2.462883481603701E-004 
 2.493862742127282E-004  2.525231673778124E-004  2.556995178015617E-004  2.589158217951921E-004 
 2.621725819127465E-004  2.654703070296190E-004  2.688095124220684E-004  2.721907198477311E-004 
 2.756144576271459E-004  2.790812607263073E-004  2.825916708402523E-004  2.861462364777034E-004 
 2.897455130467731E-004  2.933900629417480E-004  2.970804556309645E-004  3.008172677457883E-004 
 3.046010831707147E-004  3.084324931346024E-004  3.123120963030527E-004  3.162404988719547E-004 
 3.202183146622017E-004  3.242461652156039E-004  3.283246798920049E-004  3.324544959676205E-004 
 3.366362587346154E-004  3.408706216019292E-004  3.451582461973751E-004  3.494998024710191E-004 
 3.538959687998619E-004  3.583474320938369E-004  3.628548879031400E-004  3.674190405269121E-004 
 3.720406031232863E-004  3.767202978208207E-004  3.814588558313333E-004  3.862570175641536E-004 
 3.911155327418143E-004  3.960351605171967E-004  4.010166695921493E-004  4.060608383376009E-004 
 4.111684549151798E-004  4.163403174003680E-004  4.215772339072010E-004  4.268800227145370E-004 
 4.322495123939168E-004  4.376865419390267E-004  4.431919608967946E-004  4.487666295001337E-004 
 4.544114188023547E-004  4.601272108132711E-004  4.659148986370131E-004  4.717753866115785E-004 
 4.777095904501364E-004  4.837184373841094E-004  4.898028663080568E-004  4.959638279263766E-004 
 5.022022849018562E-004  5.085192120060901E-004  5.149155962717899E-004  5.213924371470116E-004 
 5.279507466513186E-004  5.345915495339141E-004  5.413158834337591E-004  5.481247990417061E-004 
 5.550193602646721E-004  5.620006443918753E-004  5.690697422631640E-004  5.762277584394623E-004 
 5.834758113753615E-004  5.908150335938786E-004  5.982465718634176E-004  6.057715873769524E-004 
 6.133912559334664E-004  6.211067681216745E-004  6.289193295060528E-004  6.368301608152130E-004 
 6.448404981326417E-004  6.529515930898416E-004  6.611647130619022E-004  6.694811413655285E-004 
 6.779021774595637E-004  6.864291371480295E-004  6.950633527857252E-004  7.038061734864114E-004 
 7.126589653336093E-004  7.216231115940569E-004  7.307000129338447E-004  7.398910876372737E-004 
 7.491977718284666E-004  7.586215196957620E-004  7.681638037189377E-004  7.778261148992858E-004 
 7.876099629925863E-004  7.975168767450096E-004  8.075484041319844E-004  8.177061126000753E-004 
 8.279915893118961E-004  8.384064413941084E-004  8.489522961885401E-004  8.596308015064576E-004 
 8.704436258860434E-004  8.813924588531053E-004  8.924790111850694E-004  9.037050151782943E-004 
 9.150722249187424E-004  9.265824165560635E-004  9.382373885811180E-004  9.500389621069967E-004 
 9.619889811535743E-004  9.740893129356384E-004  9.863418481546493E-004  9.987485012941627E-004 
 1.011311210918972E-003  1.024031939978017E-003  1.036912676111092E-003  1.049955431959425E-003 
 1.063162245480153E-003  1.076535180264756E-003  1.090076325861505E-003  1.103787798101946E-003 
 1.117671739431516E-003  1.131730319244292E-003  1.145965734221972E-003  1.160380208677111E-003 
 1.174975994900667E-003  1.189755373513934E-003  1.204720653824888E-003  1.219874174189026E-003 
 1.235218302374734E-003  1.250755435933259E-003  1.266488002573331E-003  1.282418460540494E-003 
 1.298549299001218E-003  1.314883038431830E-003  1.331422231012346E-003  1.348169461025258E-003 
 1.365127345259328E-003  1.382298533418467E-003  1.399685708535761E-003  1.417291587392696E-003 
 1.435118920943664E-003  1.453170494745802E-003  1.471449129394242E-003  1.489957680962836E-003 
 1.508699041450423E-003  1.527676139232708E-003  1.546891939519831E-003  1.566349444819679E-003 
 1.586051695407043E-003  1.606001769798662E-003  1.626202785234247E-003  1.646657898163560E-003 
 1.667370304739613E-003  1.688343241318074E-003  1.709579984962951E-003  1.731083853958645E-003 
 1.752858208328439E-003  1.774906450359501E-003  1.797232025134507E-003  1.819838421069939E-003 
 1.842729170461151E-003  1.865907850034310E-003  1.889378081505255E-003  1.913143532145406E-003 
 1.937207915354776E-003  1.961574991242199E-003  1.986248567212860E-003  2.011232498563200E-003 
 2.036530689083327E-003  2.062147091666976E-003  2.088085708929169E-003  2.114350593831626E-003 
 2.140945850316048E-003  2.167875633945372E-003  2.195144152553076E-003  2.222755666900671E-003 
 2.250714491343452E-003  2.279024994504618E-003  2.307691599957890E-003  2.336718786918689E-003 
 2.366111090944035E-003  2.395873104641233E-003  2.426009478385471E-003  2.456524921046463E-003 
 2.487424200724207E-003  2.518712145494017E-003  2.550393644160921E-003  2.582473647023541E-003 
 2.614957166647592E-003  2.647849278649104E-003  2.681155122487494E-003  2.714879902268628E-003 
 2.749028887557955E-003  2.783607414203907E-003  2.818620885171622E-003  2.854074771387172E-003 
 2.889974612592414E-003  2.926326018210571E-003  2.963134668222730E-003  3.000406314055344E-003 
 3.038146779478901E-003  3.076361961517912E-003  3.115057831372315E-003  3.154240435350506E-003 
 3.193915895814073E-003  3.234090412134431E-003  3.274770261661494E-003  3.315961800704513E-003 
 3.357671465525270E-003  3.399905773343751E-003  3.442671323356478E-003  3.485974797767649E-003 
 3.529822962833241E-003  3.574222669918258E-003  3.619180856567263E-003  3.664704547588385E-003 
 3.710800856150968E-003  3.757476984897007E-003  3.804740227066583E-003  3.852597967637444E-003 
 3.901057684478916E-003  3.950126949520355E-003  3.999813429934249E-003  4.050124889334256E-003 
 4.101069188988265E-003  4.152654289046742E-003  4.204888249786524E-003  4.257779232870247E-003 
 4.311335502621624E-003  4.365565427316767E-003  4.420477480491740E-003  4.476080242266572E-003 
 4.532382400685912E-003  4.589392753076563E-003  4.647120207422075E-003  4.705573783754637E-003 
 4.764762615564475E-003  4.824695951226979E-003  4.885383155447781E-003  4.946833710726013E-003 
 5.009057218835956E-003  5.072063402327350E-003  5.135862106044550E-003  5.200463298664811E-003 
 5.265877074255914E-003  5.332113653853381E-003  5.399183387057530E-003  5.467096753650632E-003 
 5.535864365234385E-003  5.605496966888010E-003  5.676005438847185E-003  5.747400798204101E-003 
 5.819694200628914E-003  5.892896942112836E-003  5.967020460733154E-003  6.042076338440462E-003 
 6.118076302868348E-003  6.195032229165881E-003  6.272956141853111E-003  6.351860216699936E-003 
 6.431756782628580E-003  6.512658323640020E-003  6.594577480764635E-003  6.677527054037391E-003 
 6.761520004497875E-003  6.846569456215483E-003  6.932688698340076E-003  7.019891187178451E-003 
 7.108190548296900E-003  7.197600578650249E-003  7.288135248737644E-003  7.379808704785479E-003 
 7.472635270957774E-003  7.566629451594351E-003  7.661805933477167E-003  7.758179588125156E-003 
 7.855765474117928E-003  7.954578839448707E-003  8.054635123906868E-003  8.155949961490421E-003 
 8.258539182848870E-003  8.362418817756763E-003  8.467605097618406E-003  8.574114458004028E-003 
 8.681963541217884E-003  8.791169198898649E-003  8.901748494652513E-003  9.013718706719414E-003 
 9.127097330672794E-003  9.241902082153313E-003  9.358150899636968E-003  9.475861947237997E-003 
 9.595053617547070E-003  9.715744534505173E-003  9.837953556313631E-003  9.961699778380734E-003 
 1.008700253630544E-002  1.021388140889862E-002  1.034235622124224E-002  1.047244704778711E-002 
 1.060417421548956E-002  1.073755830698754E-002  1.087262016381672E-002  1.100938088966701E-002 
 1.114786185368007E-002  1.128808469378828E-002  1.143007132009567E-002  1.157384391830149E-002 
 1.171942495316671E-002  1.186683717202422E-002  1.201610360833312E-002  1.216724758527778E-002 
 1.232029271941210E-002  1.247526292434965E-002  1.263218241450026E-002  1.279107570885350E-002 
 1.295196763480990E-002  1.311488333206022E-002  1.327984825651362E-002  1.344688818427515E-002 
 1.361602921567339E-002  1.378729777933860E-002  1.396072063633230E-002  1.413632488432874E-002 
 1.431413796184893E-002  1.449418765254801E-002  1.467650208955644E-002  1.486110975987595E-002 
 1.504803950883060E-002  1.523732054457397E-002  1.542898244265301E-002  1.562305515062922E-002 
 1.581956899275807E-002  1.601855467472720E-002  1.622004328845425E-002  1.642406631694507E-002 
 1.663065563921293E-002  1.683984353525975E-002  1.705166269111988E-002  1.726614620396737E-002 
 1.748332758728748E-002  1.770324077611321E-002  1.792592013232773E-002  1.815140045003351E-002 
 1.837971696098890E-002  1.861090534011327E-002  1.884500171106122E-002  1.908204265186698E-002 
 1.932206520065980E-002  1.956510686145128E-002  1.981120560999538E-002  2.006039989972225E-002 
 2.031272866774665E-002  2.056823134095196E-002  2.082694784215068E-002  2.108891859632249E-002 
 2.135418453693072E-002  2.162278711231827E-002  2.189476829218401E-002  2.217017057414067E-002 
 2.244903699035510E-002  2.273141111427218E-002  2.301733706742330E-002  2.330685952632033E-002 
 2.360002372943652E-002  2.389687548427506E-002  2.419746117452659E-002  2.450182776731675E-002 
 2.481002282054491E-002  2.512209449031517E-002  2.543809153846084E-002  2.575806334016359E-002 
 2.608205989166843E-002  2.641013181809570E-002  2.674233038135139E-002  2.707870748813685E-002 
 2.741931569805939E-002  2.776420823184479E-002  2.811343897965313E-002  2.846706250949928E-002 
 2.882513407577922E-002  2.918770962790370E-002  2.955484581904039E-002  2.992660001496611E-002 
 3.030303030303032E-002  3.068419550123136E-002  3.107015516740695E-002  3.146096960854017E-002 
 3.185669989018256E-002  3.225740784599575E-002  3.266315608741309E-002  3.307400801342279E-002 
 3.349002782047419E-002  3.391128051250851E-002  3.433783191111596E-002  3.476974866582039E-002 
 3.520709826449344E-002  3.564994904389972E-002  3.609837020037450E-002  3.655243180063579E-002 
 3.701220479273244E-002  3.747776101712985E-002  3.794917321793530E-002  3.842651505426424E-002 
 3.890986111174976E-002  3.939928691419671E-002  3.989486893538249E-002  4.039668461100616E-002 
 4.090481235078799E-002  4.141933155072112E-002  4.194032260547733E-002  4.246786692096891E-002 
 4.300204692706842E-002  4.354294609048864E-002  4.409064892782430E-002  4.464524101875806E-002 
 4.520680901943246E-002  4.577544067599010E-002  4.635122483828422E-002  4.693425147376163E-002 
 4.752461168152029E-002  4.812239770654376E-002  4.872770295411465E-002  4.934062200440941E-002 
 4.996125062727663E-002  5.058968579720132E-002  5.122602570845734E-002  5.187036979045045E-002 
 5.252281872325442E-002  5.318347445334241E-002  5.385244020951634E-002  5.452982051903665E-002 
 5.521572122395484E-002  5.591024949765153E-002  5.661351386158252E-002  5.732562420223546E-002 
 5.804669178829991E-002  5.877682928805317E-002  5.951615078696509E-002  6.026477180552402E-002 
 6.102280931728720E-002  6.179038176715806E-002  6.256760908989355E-002  6.335461272884414E-002 
 6.415151565492956E-002  6.495844238585334E-002  6.577551900555889E-002  6.660287318393038E-002 
 6.744063419674148E-002  6.828893294585484E-002  6.914790197967589E-002  7.001767551386379E-002 
 7.089838945230278E-002  7.179018140833759E-002  7.269319072627572E-002  7.360755850316028E-002 
 7.453342761081669E-002  7.547094271817673E-002  7.642025031388332E-002  7.738149872917964E-002 
 7.835483816108628E-002  7.934042069586976E-002  8.033840033280630E-002  8.134893300824458E-002 
 8.237217661997111E-002  8.340829105188198E-002  8.445743819896520E-002  8.551978199259702E-002 
 8.659548842615652E-002  8.768472558096249E-002  8.878766365253644E-002  8.990447497719602E-002 
 9.103533405898287E-002  9.218041759692924E-002  9.333990451266766E-002  9.451397597838769E-002 
 9.570281544514452E-002  9.690660867152355E-002  9.812554375266552E-002  9.935981114965682E-002 
 1.006096037192894E-001  1.018751167441949E-001  1.031565479633582E-001  1.044540976030144E-001 
 1.057679684079346E-001  1.070983656731052E-001  1.084454972758055E-001  1.098095737080892E-001 
 1.111908081096741E-001  1.125894163012456E-001  1.140056168181791E-001  1.154396309446867E-001 
 1.168916827483932E-001  1.183619991153471E-001  1.198508097854721E-001  1.213583473884644E-001 
 1.228848474801417E-001  1.244305485792489E-001  1.259956922047276E-001  1.275805229134534E-001 
 1.291852883384491E-001  1.308102392275772E-001  1.324556294827200E-001  1.341217161994526E-001 
 1.358087597072141E-001  1.375170236099850E-001  1.392467748274755E-001  1.409982836368325E-001 
 1.427718237148710E-001  1.445676721808365E-001  1.463861096397055E-001  1.482274202260305E-001 
 1.500918916483369E-001  1.519798152340776E-001  1.538914859751540E-001  1.558272025740087E-001 
 1.577872674902985E-001  1.597719869881544E-001  1.617816711840357E-001  1.638166340951870E-001 
 1.658771936887031E-001  1.679636719312129E-001  1.700763948391867E-001  1.722156925298771E-001 
 1.743818992729010E-001  1.765753535424690E-001  1.787963980702733E-001  1.810453798990402E-001 
 1.833226504367560E-001  1.856285655115754E-001  1.879634854274203E-001  1.903277750202778E-001 
 1.927218037152071E-001  1.951459455840625E-001  1.976005794039429E-001  2.000860887163767E-001 
 2.026028618872507E-001  2.051512921674933E-001  2.077317777545207E-001  2.103447218544557E-001 
 2.129905327451302E-001  2.156696238398788E-001  2.183824137521355E-001  2.211293263608435E-001 
 2.239107908766864E-001  2.267272419091540E-001  2.295791195344500E-001  2.324668693642556E-001 
 2.353909426153569E-001  2.383517961801483E-001  2.413498926980235E-001  2.443857006276629E-001 
 2.474596943202320E-001  2.505723540934992E-001  2.537241663068869E-001  2.569156234374660E-001 
 2.601472241569059E-001  2.634194734093942E-001  2.667328824905337E-001  2.700879691272346E-001 
 2.734852575586099E-001  2.769252786178887E-001  2.804085698153606E-001  2.839356754223617E-001 
 2.875071465563191E-001  2.911235412668639E-001  2.947854246230269E-001  2.984933688015330E-001 
 3.022479531762038E-001  3.060497644084866E-001  3.098993965391214E-001  3.137974510809605E-001 
 3.177445371129570E-001  3.217412713753336E-001  3.257882783659503E-001  3.298861904378832E-001 
 3.340356478982304E-001  3.382372991081628E-001  3.424918005842300E-001  3.467998171009432E-001 
 3.511620217946484E-001  3.555790962687034E-001  3.600517306999820E-001  3.645806239467133E-001 
 3.691664836576812E-001  3.738100263827958E-001  3.785119776850550E-001  3.832730722539162E-001 
 3.880940540200922E-001  3.929756762717921E-001  3.979187017724249E-001  4.029239028797815E-001 
 4.079920616667181E-001  4.131239700433565E-001  4.183204298808212E-001  4.235822531365345E-001 
 4.289102619810851E-001  4.343052889266951E-001  4.397681769573007E-001  4.452997796602712E-001 
 4.509009613597831E-001  4.565725972518725E-001  4.623155735411869E-001  4.681307875794554E-001 
 4.740191480057024E-001  4.799815748882250E-001  4.860189998683538E-001  4.921323663060256E-001 
 4.983226294271837E-001  5.045907564730349E-001  5.109377268511831E-001  5.173645322886624E-001 
 5.238721769868985E-001  5.304616777786149E-001  5.371340642867166E-001  5.438903790851712E-001 
 5.507316778619111E-001  5.576590295837895E-001  5.646735166636065E-001  5.717762351292391E-001 
 5.789682947948988E-001  5.862508194345399E-001  5.936249469574546E-001  6.010918295860707E-001 
 6.086526340359901E-001  6.163085416982915E-001  6.240607488241223E-001  6.319104667116187E-001 
 6.398589218951705E-001  6.479073563370713E-001  6.560570276215778E-001  6.643092091514082E-001 
 6.726651903467166E-001  6.811262768465643E-001  6.896937907129315E-001  6.983690706372906E-001 
 7.071534721497794E-001  7.160483678310069E-001  7.250551475265198E-001  7.341752185639694E-001 
 7.434100059730110E-001  7.527609527079651E-001  7.622295198732841E-001  7.718171869518514E-001 
 7.815254520361538E-001  7.913558320623630E-001  8.013098630473576E-001  8.113891003287313E-001 
 8.215951188078154E-001  8.319295131957610E-001  8.423938982627176E-001  8.529899090901411E-001 
 8.637192013262815E-001  8.745834514448798E-001  8.855843570071198E-001  8.967236369268778E-001 
 9.080030317393037E-001  9.194243038727858E-001  9.309892379243313E-001  9.426996409384144E-001 
 9.545573426893319E-001  9.665641959671065E-001  9.787220768669908E-001  9.910328850826113E-001 
 1.003498544202798E+000  1.016121002012150E+000  1.028902230795381E+000  1.041844227645491E+000 
 1.054949014775820E+000  1.068218639836017E+000  1.081655176231997E+000  1.095260723449908E+000 
 1.109037407384182E+000  1.122987380669715E+000  1.137112823018213E+000  1.151415941558781E+000 
 1.165898971182793E+000  1.180564174893090E+000  1.195413844157593E+000  1.210450299267332E+000 
 1.225675889699013E+000  1.241092994482116E+000  1.256704022570629E+000  1.272511413219455E+000 
 1.288517636365540E+000  1.304725193013816E+000  1.321136615627986E+000  1.337754468526220E+000 
 1.354581348281844E+000  1.371619884129054E+000  1.388872738373742E+000  1.406342606809485E+000 
 1.424032219138767E+000  1.441944339399506E+000  1.460081766396935E+000  1.478447334140922E+000 
 1.497043912288794E+000  1.515874406593720E+000  1.534941759358748E+000  1.554248949896537E+000 
 1.573798994994893E+000  1.593594949388136E+000  1.613639906234414E+000  1.633936997599017E+000 
 1.654489394943766E+000  1.675300309622559E+000  1.696372993383156E+000  1.717710738875267E+000 
 1.739316880165038E+000  1.761194793256001E+000  1.783347896616588E+000  1.805779651714272E+000 
 1.828493563556424E+000  1.851493181237981E+000  1.874782098495998E+000  1.898363954271178E+000 
 1.922242433276465E+000  1.946421266572785E+000  1.970904232152031E+000  1.995695155527387E+000 
 2.020797910331067E+000  2.046216418919580E+000  2.071954652986611E+000  2.098016634183595E+000 
 2.124406434748118E+000  2.151128178140210E+000  2.178186039686639E+000  2.205584247233324E+000 
 2.233327081805935E+000  2.261418878278818E+000  2.289864026052324E+000  2.318666969738663E+000 
 2.347832209856391E+000  2.377364303533611E+000  2.407267865220042E+000  2.437547567408040E+000 
 2.468208141362671E+000  2.499254377861001E+000  2.530691127940645E+000  2.562523303657760E+000 
 2.594755878854565E+000  2.627393889936512E+000  2.660442436659238E+000  2.693906682925404E+000 
 2.727791857591573E+000  2.762103255285226E+000  2.796846237232057E+000  2.832026232093687E+000 
 2.867648736815883E+000  2.903719317487484E+000  2.940243610210104E+000  2.977227321978790E+000 
 3.014676231573753E+000  3.052596190463307E+000  3.090993123718175E+000  3.129873030937298E+000 
 3.169241987185280E+000  3.209106143941634E+000  3.249471730061956E+000  3.290345052751203E+000 
 3.331732498549200E+000  3.373640534328556E+000  3.416075708305128E+000  3.459044651061183E+000 
 3.502554076581447E+000  3.546610783302179E+000  3.591221655173435E+000  3.636393662734711E+000 
 3.682133864204090E+000  3.728449406581110E+000  3.775347526763499E+000  3.822835552677944E+000 
 3.870920904425119E+000  3.919611095439060E+000  3.968913733661173E+000  4.018836522728989E+000 
 4.069387263179864E+000  4.120573853669848E+000  4.172404292207840E+000  4.224886677405312E+000 
 4.278029209741727E+000  4.331840192845879E+000  4.386328034793364E+000  4.441501249420339E+000 
 4.497368457653841E+000  4.553938388858818E+000  4.611219882202110E+000  4.669221888033599E+000 
 4.727953469284700E+000  4.787423802884473E+000  4.847642181193535E+000  4.908618013456010E+000 
 4.970360827269753E+000  5.032880270075034E+000  5.096186110661987E+000  5.160288240697004E+000 
 5.225196676268313E+000  5.290921559451039E+000  5.357473159891892E+000  5.424861876413844E+000 
 5.493098238640950E+000  5.562192908643636E+000  5.632156682604672E+000  5.703000492506075E+000 
 5.774735407837277E+000  5.847372637324745E+000  5.920923530683362E+000  5.995399580389866E+000 
 6.070812423478540E+000  6.147173843359547E+000  6.224495771660102E+000  6.302790290088807E+000 
 6.382069632323471E+000  6.462346185922608E+000  6.543632494261040E+000  6.625941258489823E+000 
 6.709285339520823E+000  6.793677760036275E+000  6.879131706523579E+000  6.965660531335729E+000 
 7.053277754777645E+000  7.141997067218746E+000  7.231832331232111E+000  7.322797583760508E+000 
 7.414907038309716E+000  7.508175087169404E+000  7.602616303661957E+000  7.698245444419608E+000 
 7.795077451690150E+000  7.893127455671728E+000  7.992410776876947E+000  8.092942928526732E+000 
 8.194739618974326E+000  8.297816754159713E+000  8.402190440094977E+000  8.507876985380895E+000 
 8.614892903755180E+000  8.723254916672820E+000  8.832979955918793E+000  8.944085166253712E+000 
 9.056587908092744E+000  9.170505760218177E+000  9.285856522526190E+000  9.402658218808073E+000 
 9.520929099566500E+000  9.640687644867214E+000  9.761952567226562E+000  9.884742814535395E+000 
 1.000907757301966E+001  1.013497627023834E+001  1.026245857811902E+001  1.039154441603165E+001 
 1.052225395390105E+001  1.065460761535845E+001  1.078862608093271E+001  1.092433029128175E+001 
 1.106174145046451E+001  1.120088102925421E+001  1.134177076849310E+001  1.148443268248957E+001 
 1.162888906245795E+001  1.177516248000148E+001  1.192327579063928E+001  1.207325213737745E+001 
 1.222511495432532E+001  1.237888797035699E+001  1.253459521281905E+001  1.269226101128497E+001 
 1.285191000135650E+001  1.301356712851316E+001  1.317725765200996E+001  1.334300714882421E+001 
 1.351084151765204E+001  1.368078698295502E+001  1.385287009905786E+001  1.402711775429756E+001 
 1.420355717522476E+001  1.438221593085795E+001  1.456312193699119E+001  1.474630346055599E+001 
 1.493178912403808E+001  1.511960790994976E+001  1.530978916535846E+001  1.550236260647225E+001 
 1.569735832328310E+001  1.589480678426850E+001  1.609473884115215E+001  1.629718573372476E+001 
 1.650217909472514E+001  1.670975095478301E+001  1.691993374742382E+001  1.713276031413652E+001 
 1.734826390950519E+001  1.756647820640504E+001  1.778743730126392E+001  1.801117571938995E+001 
 1.823772842036613E+001  1.846713080351296E+001  1.869941871341950E+001  1.893462844554429E+001 
 1.917279675188649E+001  1.941396084672851E+001  1.965815841245086E+001  1.990542760541999E+001 
 2.015580706195038E+001  2.040933590434150E+001  2.066605374699077E+001  2.092600070258345E+001 
 2.118921738836018E+001  2.145574493246364E+001  2.172562498036485E+001  2.199889970137034E+001 
 2.227561179521131E+001  2.255580449871536E+001  2.283952159256248E+001  2.312680740812581E+001 
 2.341770683439848E+001  2.371226532500775E+001  2.401052890531703E+001  2.431254417961757E+001 
 2.461835833841042E+001  2.492801916578007E+001  2.524157504686085E+001  2.555907497539708E+001 
 2.588056856139855E+001  2.620610603889218E+001  2.653573827377109E+001  2.686951677174268E+001 
 2.720749368637631E+001  2.754972182725252E+001  2.789625466821457E+001  2.824714635572389E+001 
 2.860245171732057E+001  2.896222627019023E+001  2.932652622983871E+001  2.969540851887589E+001 
 3.006893077590989E+001  3.044715136455336E+001  3.083012938254276E+001  3.121792467097257E+001 
 3.161059782364558E+001  3.200821019654076E+001  3.241082391740040E+001  3.281850189543746E+001 
 3.323130783116545E+001  3.364930622635167E+001  3.407256239409578E+001  3.450114246903515E+001 
 3.493511341767844E+001  3.537454304886928E+001  3.581950002438158E+001  3.627005386964799E+001 
 3.672627498462356E+001  3.718823465478566E+001  3.765600506227263E+001  3.812965929716232E+001 
 3.860927136889255E+001  3.909491621782537E+001  3.958666972695645E+001  4.008460873377208E+001 
 4.058881104225512E+001  4.109935543504207E+001  4.161632168573306E+001  4.213979057135651E+001 
 4.266984388499081E+001  4.320656444854461E+001  4.375003612569789E+001  4.430034383500600E+001 
 4.485757356316807E+001  4.542181237846282E+001  4.599314844435312E+001  4.657167103326159E+001 