<UPF version="2.0.1">
  <PP_INFO>
    Generated in analytical, separable form
    Author: Goedecker/Hartwigsen/Hutter/Teter
    Generation date: Phys.Rev.B58, 3641 (1998); B54, 1703 (1996)
    Pseudopotential type: NC
    Element: Se
    Functional: SLA-PW-PBX-PBC

    Suggested minimum cutoff for wavefunctions:   0. Ry
    Suggested minimum cutoff for charge density:   0. Ry
    The Pseudo was generated with a Non-Relativistic Calculation
    Local Potential: unknown format, L component and cutoff radius: -3   0.0000

    Valence configuration: 
    nl pn  l   occ       Rcut    Rcut US       E pseu

    Generation configuration: not available.
    Converted from CPMD format using cpmd2upf v.5.0.1 - PG 10Jul2012
    Contains atomic orbitals generated by ld1.x - use with care
  </PP_INFO>
  <!--                               -->
  <!-- END OF HUMAN READABLE SECTION -->
  <!--                               -->
  <PP_HEADER generated="Generated in analytical, separable form"
             author="Goedecker/Hartwigsen/Hutter/Teter"
             date="Phys.Rev.B58, 3641 (1998); B54, 1703 (1996)"
             comment="Contains atomic orbitals generated by ld1.x - use with care"
             element="Se"
             pseudo_type="NC"
             relativistic="no"
             is_ultrasoft="F"
             is_paw="F"
             is_coulomb="F"
             has_so="F"
             has_wfc="F"
             has_gipaw="F"
             paw_as_gipaw="F"
             core_correction="F"
             functional="SLA-PW-PBX-PBC"
             z_valence="6.000000000000000E+000"
             total_psenergy="0.000000000000000E+000"
             wfc_cutoff="0.000000000000000E+000"
             rho_cutoff="0.000000000000000E+000"
             l_max="2"
             l_max_rho="0"
             l_local="-3"
             mesh_size="1211"
             number_of_wfc=" 3"
             number_of_proj="6"/>
  <PP_MESH dx="1.250000000000000E-002" mesh="1211" xmin="-7.000000000000000E+000" rmax="9.934905681392749E+001"
zmesh="3.400000000000000E+001">
    <PP_R type="real" size="1211" columns="4">
 2.682005781042695E-005  2.715741260791242E-005  2.749901080637006E-005  2.784490578121335E-005 
 2.819515157923588E-005  2.854980292705614E-005  2.890891523966878E-005  2.927254462910327E-005 
 2.964074791319148E-005  3.001358262444572E-005  3.039110701904815E-005  3.077338008595349E-005 
 3.116046155610618E-005  3.155241191177343E-005  3.194929239599582E-005  3.235116502215642E-005 
 3.275809258367068E-005  3.317013866379801E-005  3.358736764557669E-005  3.400984472188405E-005 
 3.443763590562278E-005  3.487080804003567E-005  3.530942880915002E-005  3.575356674835337E-005 
 3.620329125510238E-005  3.665867259976616E-005  3.711978193660631E-005  3.758669131489484E-005 
 3.805947369017200E-005  3.853820293564588E-005  3.902295385373504E-005  3.951380218775667E-005 
 4.001082463376158E-005  4.051409885251815E-005  4.102370348164702E-005  4.153971814790828E-005 
 4.206222347964337E-005  4.259130111937340E-005  4.312703373655597E-005  4.366950504050255E-005 
 4.421879979345801E-005  4.477500382384505E-005  4.533820403967501E-005  4.590848844212742E-005 
 4.648594613930050E-005  4.707066736013424E-005  4.766274346850902E-005  4.826226697752136E-005 
 4.886933156393923E-005  4.948403208283945E-005  5.010646458242864E-005  5.073672631905125E-005 
 5.137491577238587E-005  5.202113266083296E-005  5.267547795709617E-005  5.333805390395927E-005 
 5.400896403026197E-005  5.468831316707650E-005  5.537620746408757E-005  5.607275440617872E-005 
 5.677806283022674E-005  5.749224294210786E-005  5.821540633391755E-005  5.894766600140703E-005 
 5.968913636163924E-005  6.043993327086644E-005  6.120017404263322E-005  6.196997746610689E-005 
 6.274946382463848E-005  6.353875491455749E-005  6.433797406420250E-005  6.514724615319168E-005 
 6.596669763193539E-005  6.679645654139432E-005  6.763665253308635E-005  6.848741688934452E-005 
 6.934888254383038E-005  7.022118410230510E-005  7.110445786366186E-005  7.199884184122303E-005 
 7.290447578430466E-005  7.382150120005289E-005  7.475006137555465E-005  7.569030140022647E-005 
 7.664236818848525E-005  7.760641050270358E-005  7.858257897645443E-005  7.957102613804785E-005 
 8.057190643436378E-005  8.158537625498496E-005  8.261159395663272E-005  8.365071988791081E-005 
 8.470291641436009E-005  8.576834794382846E-005  8.684718095216019E-005  8.793958400920765E-005 
 8.904572780517104E-005  9.016578517726892E-005  9.129993113674438E-005  9.244834289621119E-005 
 9.361119989734314E-005  9.478868383891254E-005  9.598097870518084E-005  9.718827079464653E-005 
 9.841074874915506E-005  9.964860358337387E-005  1.009020287146392E-004  1.021712199931780E-004 
 1.034563757327097E-004  1.047576967414332E-004  1.060753863534038E-004  1.074096504603042E-004 
 1.087606975436157E-004  1.101287387071935E-004  1.115139877102532E-004  1.129166610007695E-004 
 1.143369777492979E-004  1.157751598832201E-004  1.172314321214203E-004  1.187060220093988E-004 
 1.201991599548255E-004  1.217110792635423E-004  1.232420161760170E-004  1.247922099042571E-004 
 1.263619026691865E-004  1.279513397384932E-004  1.295607694649531E-004  1.311904433252354E-004 
 1.328406159591961E-004  1.345115452096669E-004  1.362034921627425E-004  1.379167211885768E-004 
 1.396514999826905E-004  1.414080996077997E-004  1.431867945361695E-004  1.449878626925015E-004 
 1.468115854973593E-004  1.486582479111416E-004  1.505281384786075E-004  1.524215493739625E-004 
 1.543387764465113E-004  1.562801192668846E-004  1.582458811738476E-004  1.602363693216979E-004 
 1.622518947282580E-004  1.642927723234735E-004  1.663593209986208E-004  1.684518636561349E-004 
 1.705707272600631E-004  1.727162428871545E-004  1.748887457785910E-004  1.770885753923694E-004 
 1.793160754563423E-004  1.815715940219267E-004  1.838554835184871E-004  1.861681008084043E-004 
 1.885098072428348E-004  1.908809687181732E-004  1.932819557332241E-004  1.957131434470933E-004 
 1.981749117378079E-004  2.006676452616714E-004  2.031917335133686E-004  2.057475708868240E-004 
 2.083355567368270E-004  2.109560954414323E-004  2.136095964651439E-004  2.162964744228952E-004 
 2.190171491448336E-004  2.217720457419197E-004  2.245615946723518E-004  2.273862318088256E-004 
 2.302463985066404E-004  2.331425416726618E-004  2.360751138351516E-004  2.390445732144768E-004 
 2.420513837947068E-004  2.450960153961121E-004  2.481789437485746E-004  2.513006505659218E-004 
 2.544616236211951E-004  2.576623568228656E-004  2.609033502920076E-004  2.641851104404448E-004 
 2.675081500498769E-004  2.708729883520041E-004  2.742801511096566E-004  2.777301706989474E-004 
 2.812235861924563E-004  2.847609434434613E-004  2.883427951712302E-004  2.919697010473827E-004 
 2.956422277833408E-004  2.993609492188787E-004  3.031264464117865E-004  3.069393077286619E-004 
 3.108001289368428E-004  3.147095132974979E-004  3.186680716598871E-004  3.226764225568082E-004 
 3.267351923012443E-004  3.308450150842254E-004  3.350065330739228E-004  3.392203965159892E-004 
 3.434872638351601E-004  3.478078017381358E-004  3.521826853177536E-004  3.566125981584735E-004 
 3.610982324431897E-004  3.656402890613848E-004  3.702394777186470E-004  3.748965170475609E-004 
 3.796121347199963E-004  3.843870675608086E-004  3.892220616629685E-004  3.941178725041420E-004 
 3.990752650647333E-004  4.040950139474160E-004  4.091779034981656E-004  4.143247279288154E-004 
 4.195362914411546E-004  4.248134083525847E-004  4.301569032233595E-004  4.355676109854239E-004 
 4.410463770728736E-004  4.465940575540573E-004  4.522115192653362E-004  4.578996399465321E-004 
 4.636593083780735E-004  4.694914245198709E-004  4.753968996519375E-004  4.813766565167773E-004 
 4.874316294635663E-004  4.935627645941463E-004  4.997710199108548E-004  5.060573654662172E-004 
 5.124227835145151E-004  5.188682686652695E-004  5.253948280386486E-004  5.320034814228323E-004 
 5.386952614333582E-004  5.454712136744672E-004  5.523323969024827E-004  5.592798831912428E-004 
 5.663147580996156E-004  5.734381208411175E-004  5.806510844556701E-004  5.879547759835126E-004 
 5.953503366413057E-004  6.028389220004487E-004  6.104217021676395E-004  6.180998619677068E-004 
 6.258746011287404E-004  6.337471344695521E-004  6.417186920894934E-004  6.497905195606600E-004 
 6.579638781225176E-004  6.662400448789697E-004  6.746203129979097E-004  6.831059919132816E-004 
 6.916984075296796E-004  7.003989024295258E-004  7.092088360828492E-004  7.181295850597069E-004 
 7.271625432452764E-004  7.363091220576514E-004  7.455707506683807E-004  7.549488762257775E-004 
 7.644449640810396E-004  7.740604980172152E-004  7.837969804810437E-004  7.936559328177202E-004 
 8.036388955086050E-004  8.137474284119287E-004  8.239831110065242E-004  8.343475426386206E-004 
 8.448423427717480E-004  8.554691512397787E-004  8.662296285031556E-004  8.771254559083444E-004 
 8.881583359505442E-004  8.993299925397087E-004  9.106421712699085E-004  9.220966396920850E-004 
 9.336951875902339E-004  9.454396272610609E-004  9.573317937971597E-004  9.693735453737461E-004 
 9.815667635390023E-004  9.939133535080752E-004  1.006415244460766E-003  1.019074389842971E-003 
 1.031892767671913E-003  1.044872380845205E-003  1.058015257453814E-003  1.071323451098948E-003 
 1.084799041212942E-003  1.098444133384165E-003  1.112260859686032E-003  1.126251379010137E-003 
 1.140417877403588E-003  1.154762568410583E-003  1.169287693418274E-003  1.183995522006996E-003 
 1.198888352304889E-003  1.213968511346987E-003  1.229238355438821E-003  1.244700270524598E-003 
 1.260356672560006E-003  1.276210007889717E-003  1.292262753629630E-003  1.308517418053927E-003 
 1.324976540986995E-003  1.341642694200277E-003  1.358518481814121E-003  1.375606540704676E-003 
 1.392909540915910E-003  1.410430186076808E-003  1.428171213823823E-003  1.446135396228635E-003 
 1.464325540231292E-003  1.482744488078805E-003  1.501395117769247E-003  1.520280343501453E-003 
 1.539403116130365E-003  1.558766423628113E-003  1.578373291550886E-003  1.598226783511691E-003 
 1.618330001659036E-003  1.638686087161659E-003  1.659298220699334E-003  1.680169622959861E-003 
 1.701303555142308E-003  1.722703319466574E-003  1.744372259689375E-003  1.766313761626705E-003 
 1.788531253682881E-003  1.811028207386242E-003  1.833808137931571E-003  1.856874604729365E-003 
 1.880231211961988E-003  1.903881609146840E-003  1.927829491706599E-003  1.952078601546635E-003 
 1.976632727639700E-003  2.001495706617948E-003  2.026671423372429E-003  2.052163811660108E-003 
 2.077976854718517E-003  2.104114585888155E-003  2.130581089242691E-003  2.157380500227121E-003 
 2.184517006303938E-003  2.211994847607424E-003  2.239818317606187E-003  2.267991763774022E-003 
 2.296519588269211E-003  2.325406248622373E-003  2.354656258432957E-003  2.384274188074508E-003 
 2.414264665408789E-003  2.444632376508899E-003  2.475382066391483E-003  2.506518539758142E-003 
 2.538046661746192E-003  2.569971358688836E-003  2.602297618884921E-003  2.635030493378374E-003 
 2.668175096747427E-003  2.701736607903792E-003  2.735720270901869E-003  2.770131395758138E-003 
 2.804975359280872E-003  2.840257605910260E-003  2.875983648569120E-003  2.912159069524304E-003 
 2.948789521258934E-003  2.985880727355620E-003  3.023438483390776E-003  3.061468657840197E-003 
 3.099977192996011E-003  3.138970105895183E-003  3.178453489259686E-003  3.218433512448498E-003 
 3.258916422421586E-003  3.299908544715994E-003  3.341416284434229E-003  3.383446127245071E-003 
 3.426004640396970E-003  3.469098473744192E-003  3.512734360785873E-003  3.556919119718138E-003 
 3.601659654499469E-003  3.646962955929448E-003  3.692836102741096E-003  3.739286262706931E-003 
 3.786320693758948E-003  3.833946745122697E-003  3.882171858465595E-003  3.931003569059719E-003 
 3.980449506959198E-003  4.030517398192426E-003  4.081215065969273E-003  4.132550431903475E-003 
 4.184531517250401E-003  4.237166444160391E-003  4.290463436947865E-003  4.344430823376378E-003 
 4.399077035959855E-003  4.454410613280194E-003  4.510440201321427E-003  4.567174554820677E-003 
 4.624622538636108E-003  4.682793129132067E-003  4.741695415581670E-003  4.801338601587012E-003 
 4.861732006517252E-003  4.922885066964781E-003  4.984807338219710E-003  5.047508495762905E-003 
 5.110998336777799E-003  5.175286781681223E-003  5.240383875673485E-003  5.306299790307965E-003 
 5.373044825080432E-003  5.440629409038363E-003  5.509064102410503E-003  5.578359598256921E-003 
 5.648526724139828E-003  5.719576443815399E-003  5.791519858946885E-003  5.864368210839271E-003 
 5.938132882195749E-003  6.012825398896296E-003  6.088457431798608E-003  6.165040798561702E-003 
 6.242587465492446E-003  6.321109549415314E-003  6.400619319565675E-003  6.481129199506879E-003 
 6.562651769071467E-003  6.645199766326792E-003  6.728786089565368E-003  6.813423799320261E-003 
 6.899126120405815E-003  6.985906443984065E-003  7.073778329657125E-003  7.162755507585905E-003 
 7.252851880635487E-003  7.344081526547459E-003  7.436458700139603E-003  7.529997835533240E-003 
 7.624713548408577E-003  7.720620638288452E-003  7.817734090850783E-003  7.916069080270115E-003 
 8.015640971588609E-003  8.116465323116859E-003  8.218557888864924E-003  8.321934621003909E-003 
 8.426611672358534E-003  8.532605398931041E-003  8.639932362456850E-003  8.748609332992372E-003 
 8.858653291535359E-003  8.970081432678216E-003  9.082911167294705E-003  9.197160125260409E-003 
 9.312846158207450E-003  9.429987342313845E-003  9.548601981127934E-003  9.668708608428360E-003 
 9.790325991119991E-003  9.913473132166305E-003  1.003816927355864E-002  1.016443389932278E-002 
 1.029228673856340E-002  1.042174776854673E-002  1.055283721782211E-002  1.068557556938269E-002 
 1.081998356386595E-002  1.095608220279450E-002  1.109389275185756E-002  1.123343674423380E-002 
 1.137473598395592E-002  1.151781254931762E-002  1.166268879632332E-002  1.180938736218138E-002 
 1.195793116884115E-002  1.210834342657467E-002  1.226064763760319E-002  1.241486759976958E-002 
 1.257102741025667E-002  1.272915146935257E-002  1.288926448426322E-002  1.305139147297294E-002 
 1.321555776815358E-002  1.338178902112276E-002  1.355011120585194E-002  1.372055062302496E-002 
 1.389313390414749E-002  1.406788801570836E-002  1.424484026339302E-002  1.442401829635019E-002 
 1.460545011151205E-002  1.478916405796886E-002  1.497518884139851E-002  1.516355352855189E-002 
 1.535428755179459E-002  1.554742071370581E-002  1.574298319173501E-002  1.594100554291727E-002 
 1.614151870864784E-002  1.634455401951681E-002  1.655014320020459E-002  1.675831837443892E-002 
 1.696911207001432E-002  1.718255722387459E-002  1.739868718725927E-002  1.761753573091487E-002 
 1.783913705037158E-002  1.806352577128641E-002  1.829073695485354E-002  1.852080610328265E-002 
 1.875376916534628E-002  1.898966254199683E-002  1.922852309205434E-002  1.947038813796571E-002 
 1.971529547163646E-002  1.996328336033572E-002  2.021439055267566E-002  2.046865628466595E-002 
 2.072612028584452E-002  2.098682278548538E-002  2.125080451888448E-002  2.151810673372477E-002 
 2.178877119652112E-002  2.206284019914653E-002  2.234035656544026E-002  2.262136365789914E-002 
 2.290590538445310E-002  2.319402620532579E-002  2.348577113998169E-002  2.378118577416037E-002 
 2.408031626699948E-002  2.438320935824708E-002  2.468991237556493E-002  2.500047324192348E-002 
 2.531494048308994E-002  2.563336323521053E-002  2.595579125248811E-002  2.628227491495636E-002 
 2.661286523635176E-002  2.694761387208465E-002  2.728657312731039E-002  2.762979596510224E-002 
 2.797733601472689E-002  2.832924758002418E-002  2.868558564789215E-002  2.904640589687887E-002 
 2.941176470588237E-002  2.978171916295985E-002  3.015632707424792E-002  3.053564697299487E-002 
 3.091973812870660E-002  3.130866055640764E-002  3.170247502601858E-002  3.210124307185153E-002 
 3.250502700222495E-002  3.291388990919944E-002  3.332789567843608E-002  3.374710899917861E-002 
 3.417159537436128E-002  3.460142113084385E-002  3.503665342977525E-002  3.547736027708768E-002 
 3.592361053412266E-002  3.637547392839074E-002  3.683302106446661E-002  3.729632343502117E-002 
 3.776545343199241E-002  3.824048435789681E-002  3.872149043728301E-002  3.920854682832951E-002 
 3.970172963458835E-002  4.020111591687638E-002  4.070678370531623E-002  4.121881201152864E-002 
 4.173728084097817E-002  4.226227120547427E-002  4.279386513582947E-002  4.333214569467694E-002 
 4.387719698944915E-002  4.442910418551980E-002  4.498795351951116E-002  4.555383231276864E-002 
 4.612682898500498E-002  4.670703306811600E-002  4.729453522017010E-002  4.788942723957385E-002 
 4.849180207941556E-002  4.910175386198951E-002  4.971937789350271E-002  5.034477067896662E-002 
 5.097802993727635E-002  5.161925461647939E-002  5.226854490923644E-002  5.292600226847675E-002 
 5.359172942325029E-002  5.426583039477943E-002  5.494841051271245E-002  5.563957643158148E-002 
 5.633943614746756E-002  5.704809901487514E-002  5.776567576381905E-002  5.849227851712626E-002 
 5.922802080795522E-002  5.997301759753577E-002  6.072738529313198E-002  6.149124176623107E-002 
 6.226470637096105E-002  6.304789996274000E-002  6.384094491716009E-002  6.464396514910890E-002 
 6.545708613213143E-002  6.628043491803558E-002  6.711414015674425E-002  6.795833211639721E-002 
 6.881314270370564E-002  6.967870548456297E-002  7.055515570491468E-002  7.144263031189085E-002 
 7.234126797520443E-002  7.325120910881858E-002  7.417259589288674E-002  7.510557229596848E-002 
 7.605028409752491E-002  7.700687891069713E-002  7.797550620537082E-002  7.895631733153151E-002 
 7.994946554291313E-002  8.095510602094427E-002  8.197339589899563E-002  8.300449428693241E-002 
 8.404856229597545E-002  8.510576306387535E-002  8.617626178040302E-002  8.726022571316083E-002 
 8.835782423371867E-002  8.946922884407839E-002  9.059461320347155E-002  9.173415315549394E-002 
 9.288802675558144E-002  9.405641429883169E-002  9.523949834817536E-002  9.643746376290221E-002 
 9.765049772754555E-002  9.887878978113031E-002  1.001225318467888E-001  1.013819182617493E-001 
 1.026571458077013E-001  1.039484137415433E-001  1.052559238265171E-001  1.065798803637336E-001 
 1.079204902240955E-001  1.092779628806207E-001  1.106525104411739E-001  1.120443476816077E-001 
 1.134536920793228E-001  1.148807638472486E-001  1.163257859682523E-001  1.177889842299802E-001 
 1.192705872601375E-001  1.207708265622122E-001  1.222899365516473E-001  1.238281545924695E-001 
 1.253857210343770E-001  1.269628792502955E-001  1.285598756744047E-001  1.301769598406452E-001 
 1.318143844217079E-001  1.334724052685148E-001  1.351512814501968E-001  1.368512752945727E-001 
 1.385726524291395E-001  1.403156818225766E-001  1.420806358267730E-001  1.438677902193826E-001 
 1.456774242469152E-001  1.475098206683695E-001  1.493652657994142E-001  1.512440495571261E-001 
 1.531464655052897E-001  1.550728109002675E-001  1.570233867374464E-001  1.589984977982697E-001 
 1.609984526978589E-001  1.630235639332361E-001  1.650741479321518E-001  1.671505251025278E-001 
 1.692530198825216E-001  1.713819607912199E-001  1.735376804799712E-001  1.757205157843626E-001 
 1.779308077768514E-001  1.801689018200585E-001  1.824351476207314E-001  1.847298992843873E-001 
 1.870535153706422E-001  1.894063589492371E-001  1.917887976567681E-001  1.942012037541303E-001 
 1.966439541846845E-001  1.991174306331553E-001  2.016220195852700E-001  2.041581123881482E-001 
 2.067261053114499E-001  2.093263996092941E-001  2.119594015829550E-001  2.146255226443481E-001 
 2.173251793803133E-001  2.200587936177083E-001  2.228267924893191E-001  2.256296085006010E-001 
 2.284676795972582E-001  2.313414492336734E-001  2.342513664421993E-001  2.371978859033199E-001 
 2.401814680166957E-001  2.432025789731022E-001  2.462616908272726E-001  2.493592815716582E-001 
 2.524958352111146E-001  2.556718418385296E-001  2.588877977114004E-001  2.621442053293747E-001 
 2.654415735127684E-001  2.687804174820685E-001  2.721612589384382E-001  2.755846261452334E-001 
 2.790510540105450E-001  2.825610841707796E-001  2.861152650752908E-001  2.897141520720762E-001 
 2.933583074945508E-001  2.970483007494135E-001  3.007847084056178E-001  3.045681142844616E-001 
 3.083991095508112E-001  3.122782928054709E-001  3.162062701787165E-001  3.201836554250043E-001 
 3.242110700188707E-001  3.282891432520404E-001  3.324185123317526E-001  3.365998224803273E-001 
 3.408337270359822E-001  3.451208875549180E-001  3.494619739146884E-001  3.538576644188688E-001 
 3.583086459030435E-001  3.628156138421254E-001  3.673792724590239E-001  3.720003348346833E-001 
 3.766795230195013E-001  3.814175681461512E-001  3.862152105438242E-001  3.910731998539055E-001 
 3.959922951471087E-001  4.009732650420813E-001  4.060168878255030E-001  4.111239515736953E-001 
 4.162952542757590E-001  4.215316039582628E-001  4.268338188114978E-001  4.322027273173220E-001 
 4.376391683786131E-001  4.431439914503468E-001  4.487180566723284E-001  4.543622350035890E-001 
 4.600774083584758E-001  4.658644697444537E-001  4.717243234016375E-001  4.776578849440836E-001 
 4.836660815028548E-001  4.897498518708868E-001  4.959101466496777E-001  5.021479283978194E-001 
 5.084641717814015E-001  5.148598637263027E-001  5.213360035724015E-001  5.278936032297250E-001 
 5.345336873365608E-001  5.412572934195604E-001  5.480654720558534E-001  5.549592870372027E-001 
 5.619398155362252E-001  5.690081482747005E-001  5.761653896940001E-001  5.834126581276569E-001 
 5.907510859761080E-001  5.981818198836359E-001  6.057060209175305E-001  6.133248647495123E-001 
 6.210395418394302E-001  6.288512576212751E-001  6.367612326915314E-001  6.447707029998963E-001 
 6.528809200424014E-001  6.610931510569595E-001  6.694086792213746E-001  6.778288038538409E-001 
 6.863548406159624E-001  6.949881217183302E-001  7.037299961286809E-001  7.125818297826761E-001 
 7.215450057973342E-001  7.306209246871426E-001  7.398110045828934E-001  7.491166814532675E-001 
 7.585394093292080E-001  7.680806605311170E-001  7.777419258989059E-001  7.875247150249451E-001 
 7.974305564899384E-001  8.074609981017681E-001  8.176176071373435E-001  8.279019705874898E-001 
 8.383156954049203E-001  8.488604087553245E-001  8.595377582716163E-001  8.703494123113815E-001 
 8.812970602175596E-001  8.923824125824098E-001  9.036072015147922E-001  9.149731809108140E-001 
 9.264821267278809E-001  9.381358372621916E-001  9.499361334297263E-001  9.618848590507698E-001 
 9.739838811380096E-001  9.862350901882633E-001  9.986404004778696E-001  1.011201750361800E+000 
 1.023921102576531E+000  1.036800444546722E+000  1.049841788695762E+000  1.063047172760204E+000 
 1.076418660108177E+000  1.089958340061782E+000  1.103668328223559E+000  1.117550766807052E+000 
 1.131607824971534E+000  1.145841699160941E+000  1.160254613447075E+000  1.174848819877116E+000 
 1.189626598825512E+000  1.204590259350289E+000  1.219742139553846E+000  1.235084606948294E+000 
 1.250620058825377E+000  1.266350922631057E+000  1.282279656344810E+000  1.298408748863684E+000 
 1.314740720391202E+000  1.331278122831141E+000  1.348023540186279E+000  1.364979588962147E+000 
 1.382148918575862E+000  1.399534211770109E+000  1.417138185032319E+000  1.434963589019131E+000 
 1.453013208986183E+000  1.471289865223317E+000  1.489796413495255E+000  1.508535745487815E+000 
 1.527510789259749E+000  1.546724509700249E+000  1.566179908992225E+000  1.585880027081399E+000 
 1.605827942151302E+000  1.626026771104248E+000  1.646479670048357E+000  1.667189834790701E+000 
 1.688160501336654E+000  1.709394946395530E+000  1.730896487892571E+000  1.752668485487382E+000 
 1.774714341098882E+000  1.797037499436864E+000  1.819641448540233E+000  1.842529720322025E+000 
 1.865705891121275E+000  1.889173582261821E+000  1.912936460618147E+000  1.936998239188346E+000 
 1.961362677674271E+000  1.986033583069004E+000  2.011014810251710E+000  2.036310262589960E+000 
 2.061923892549645E+000  2.087859702312557E+000  2.114121744401738E+000  2.140714122314696E+000 
 2.167640991164584E+000  2.194906558329440E+000  2.222515084109608E+000  2.250470882393409E+000 
 2.278778321331203E+000  2.307441824017916E+000  2.336465869184159E+000  2.365854991896039E+000 
 2.395613784263769E+000  2.425746896159207E+000  2.456259035942391E+000  2.487154971197238E+000 
 2.518439529476490E+000  2.550117599056026E+000  2.582194129698672E+000  2.614674133427598E+000 
 2.647562685309468E+000  2.680864924247425E+000  2.714586053784056E+000  2.748731342914461E+000 
 2.783306126909534E+000  2.818315808149617E+000  2.853765856968631E+000  2.889661812508825E+000 
 2.926009283586290E+000  2.962813949567327E+000  3.000081561255876E+000  3.037817941792084E+000 
 3.076028987562183E+000  3.114720669119821E+000  3.153899032118958E+000  3.193570198258521E+000 
 3.233740366238930E+000  3.274415812730657E+000  3.315602893354977E+000  3.357308043677031E+000 
 3.399537780211405E+000  3.442298701440350E+000  3.485597488844804E+000  3.529440907948396E+000 
 3.573835809374558E+000  3.618789129916960E+000  3.664307893623396E+000  3.710399212893299E+000 
 3.757070289589086E+000  3.804328416161440E+000  3.852180976788786E+000  3.900635448531078E+000 
 3.949699402498104E+000  3.999380505032499E+000  4.049686518907610E+000  4.100625304540451E+000 
 4.152204821219912E+000  4.204433128350412E+000  4.257318386711206E+000  4.310868859731506E+000 
 4.365092914781669E+000  4.419999024480617E+000  4.475595768019694E+000  4.531891832503199E+000 
 4.588896014305739E+000  4.646617220446694E+000  4.705064469981961E+000  4.764246895413187E+000 
 4.824173744114760E+000  4.884854379778709E+000  4.946298283877812E+000  5.008515057147092E+000 
 5.071514421083951E+000  5.135306219467186E+000  5.199900419895072E+000  5.265307115342848E+000 
 5.331536525739746E+000  5.398598999565882E+000  5.466505015469240E+000  5.535265183902956E+000 
 5.604890248783240E+000  5.675391089168135E+000  5.746778720957381E+000  5.819064298613693E+000 
 5.892259116905642E+000  5.966374612672502E+000  6.041422366611275E+000  6.117414105086195E+000 
 6.194361701961016E+000  6.272277180454296E+000  6.351172715018068E+000  6.431060633240123E+000 
 6.511953417770211E+000  6.593863708270502E+000  6.676804303390533E+000  6.760788162767031E+000 
 6.845828409048891E+000  6.931938329947606E+000  7.019131380313519E+000  7.107421184238141E+000 
 7.196821537182959E+000  7.287346408135010E+000  7.379009941789547E+000  7.471826460760207E+000 
 7.565810467816910E+000  7.660976648151971E+000  7.757339871674684E+000  7.854915195334769E+000 
 7.953717865475081E+000  8.053763320213839E+000  8.155067191856888E+000  8.257645309340280E+000 
 8.361513700703556E+000  8.466688595594208E+000  8.573186427803535E+000  8.681023837834486E+000 
 8.790217675501781E+000  8.900785002564701E+000  9.012743095393068E+000  9.126109447666659E+000 
 9.240901773108661E+000  9.357138008253472E+000  9.474836315249309E+000  9.594015084696119E+000 
 9.714692938519086E+000  9.836888732878393E+000  9.960621561115516E+000  1.008591075673660E+001 
 1.021277589643337E+001  1.034123680314202E+001  1.047131354914057E+001  1.060302645918523E+001 
 1.073639611368614E+001  1.087144335192320E+001  1.100818927530212E+001  1.114665525065164E+001 
 1.128686291356212E+001  1.142883417176614E+001  1.157259120856165E+001  1.171815648627812E+001 
 1.186555274978634E+001  1.201480303005237E+001  1.216593064773614E+001  1.231895921683541E+001 
 1.247391264837543E+001  1.263081515414513E+001  1.278969125048025E+001  1.295056576209409E+001 
 1.311346382595639E+001  1.327841089522104E+001  1.344543274320322E+001  1.361455546740646E+001 
 1.378580549360050E+001  1.395920957995037E+001  1.413479482119733E+001  1.431258865289258E+001 
 1.449261885568402E+001  1.467491355965712E+001  1.485950124873027E+001  1.504641076510542E+001 
 1.523567131377478E+001  1.542731246708413E+001  1.562136416935356E+001  1.581785674155638E+001 
 1.601682088605675E+001  1.621828769140703E+001  1.642228863720547E+001  1.662885559901486E+001 
 1.683802085334328E+001  1.704981708268725E+001  1.726427738063851E+001  1.748143525705495E+001 
 1.770132464329654E+001  1.792397989752729E+001  1.814943581008364E+001  1.837772760891063E+001 
 1.860889096506630E+001  1.884296199829532E+001  1.907997728267290E+001  1.931997385231941E+001 
 1.956298920718713E+001  1.980906131891969E+001  2.005822863678516E+001  2.031053009368393E+001 
 2.056600511223193E+001  2.082469361092059E+001  2.108663601035411E+001  2.135187323956533E+001 
 2.162044674241098E+001  2.189239848404727E+001  2.216777095748712E+001  2.244660719023975E+001 
 2.272895075103382E+001  2.301484575662517E+001  2.330433687869006E+001  2.359746935080529E+001 
 2.389428897551600E+001  2.419484213149243E+001  2.449917578077671E+001  2.480733747612069E+001 
 2.511937536841625E+001  2.543533821421888E+001  2.575527538336606E+001  2.607923686669142E+001 
 2.640727328383583E+001  2.673943589115686E+001  2.707577658973767E+001  2.741634793349672E+001 
 2.776120313739938E+001  2.811039608577287E+001  2.846398134072581E+001  2.882201415067365E+001 
 2.918455045897136E+001  2.955164691265474E+001  2.992336087129151E+001  3.029975041594397E+001 
 3.068087435824424E+001  3.106679224958368E+001  3.145756439041804E+001  3.185325183968930E+001 
 3.225391642436646E+001  3.265962074910603E+001  3.307042820603414E+001  3.348640298465176E+001 
 3.390761008186437E+001  3.433411531213783E+001  3.476598531778212E+001  3.520328757936422E+001 
 3.564609042625228E+001  3.609446304729197E+001  3.654847550161755E+001  3.700819872959872E+001 
 3.747370456392512E+001  3.794506574083051E+001  3.842235591145773E+001  3.890564965336701E+001 
 3.939502248218880E+001  3.989055086342319E+001  4.039231222438797E+001  4.090038496631662E+001 
 4.141484847660873E+001  4.193578314123448E+001  4.246327035729502E+001  4.299739254574111E+001 
 4.353823316425137E+001  4.408587672027274E+001  4.464040878422509E+001  4.520191600287154E+001 