<UPF version="2.0.1">
  <PP_INFO>
    Generated using FHI98PP, converted with fhi2upf.x v.5.0.2
    Origin: Abinit web site
    Date: 08-Sep-2012 (PG)
    Pseudopotential type: SL
    Element: Li
    Functional: PBE

    Suggested minimum cutoff for wavefunctions:   0. Ry
    Suggested minimum cutoff for charge density:   0. Ry
    The Pseudo was generated with a Scalar-Relativistic Calculation
    L component and cutoff radius for Local Potential:  2   0.0000

    Valence configuration: 
    nl pn  l   occ       Rcut    Rcut US       E pseu
    2s  2  0  1.00      0.000      0.000     0.000000
    2p  2  1  0.00      0.000      0.000     0.000000
    3d  3  2  0.00      0.000      0.000     0.000000
    4f  4  3  0.00      0.000      0.000     0.000000

    Generation configuration: not available.
    Comment:
    lithium, fhi98PP : Trouiller-Martins-type, GGA Perdew/Burke/Ernzerhof (1996), l=
  </PP_INFO>
  <!--                               -->
  <!-- END OF HUMAN READABLE SECTION -->
  <!--                               -->
  <PP_HEADER generated="Generated using FHI98PP, converted with fhi2upf.x v.5.0.2"
             author="unknown"
             date="unknown"
             comment="lithium, fhi98PP : Trouiller-Martins-type, GGA Perdew/Burke/Ernzerhof (1996), l="
             element="Li"
             pseudo_type="SL"
             relativistic="scalar"
             is_ultrasoft="F"
             is_paw="F"
             is_coulomb="F"
             has_so="F"
             has_wfc="F"
             has_gipaw="F"
             paw_as_gipaw="F"
             core_correction="T"
             functional="PBE"
             z_valence="1.000000000000000E+000"
             total_psenergy="0.000000000000000E+000"
             wfc_cutoff="0.000000000000000E+000"
             rho_cutoff="0.000000000000000E+000"
             l_max="3"
             l_max_rho="0"
             l_local="2"
             mesh_size="433"
             number_of_wfc="4"
             number_of_proj="3"/>
  <PP_MESH dx="2.439988682353512E-002" mesh="433" xmin="-5.075173815233843E+000" rmax="7.880409825827900E+001"
zmesh="3.000000000000000E+000">
    <PP_R type="real" size="433" columns="4">
 2.083333333333300E-003  2.134791666666700E-003  2.187521020833300E-003  2.241552790047900E-003 
 2.296919143962100E-003  2.353653046818000E-003  2.411788277074400E-003  2.471359447518100E-003 
 2.532402025871800E-003  2.594952355910800E-003  2.659047679101800E-003  2.724726156775600E-003 
 2.792026892848000E-003  2.860989957101400E-003  2.931656409041800E-003  3.004068322345100E-003 
 3.078268809907000E-003  3.154302049511700E-003  3.232213310134600E-003  3.312048978895000E-003 
 3.393856588673700E-003  3.477684846413900E-003  3.563583662120300E-003  3.651604178574700E-003 
 3.741798801785500E-003  3.834221232189600E-003  3.928926496624700E-003  4.025970981091300E-003 
 4.125412464324300E-003  4.227310152193100E-003  4.331724712952300E-003  4.438718313362200E-003 
 4.548354655702200E-003  4.660699015698100E-003  4.775818281385800E-003  4.893780992936000E-003 
 5.014657383461600E-003  5.138519420833100E-003  5.265440850527600E-003  5.395497239535700E-003 
 5.528766021352200E-003  5.665326542079600E-003  5.805260107669000E-003  5.948650032328400E-003 
 6.095581688126900E-003  6.246142555823600E-003  6.400422276952500E-003  6.558512707193200E-003 
 6.720507971060900E-003  6.886504517946100E-003  7.056601179539300E-003  7.230899228674000E-003 
 7.409502439622200E-003  7.592517149880900E-003  7.780052323482900E-003  7.972219615872999E-003 
 8.169133440385000E-003  8.370911036362500E-003  8.577672538960700E-003  8.789541050673000E-003 
 9.006642714624700E-003  9.229106789675900E-003  9.457065727380899E-003  9.690655250847200E-003 
 9.930014435543101E-003  1.017528579210100E-002  1.042661535116600E-002  1.068415275034000E-002 
 1.094805132327300E-002  1.121846819095800E-002  1.149556435527500E-002  1.177950479485000E-002 
 1.207045856328300E-002  1.236859888979600E-002  1.267410328237400E-002  1.298715363344800E-002 
 1.330793632819500E-002  1.363664235550100E-002  1.397346742168200E-002  1.431861206699700E-002 
 1.467228178505200E-002  1.503468714514300E-002  1.540604391762800E-002  1.578657320239300E-002 
 1.617650156049300E-002  1.657606114903700E-002  1.698548985941800E-002  1.740503145894600E-002 
 1.783493573598100E-002  1.827545864866000E-002  1.872686247728200E-002  1.918941598047100E-002 
 1.966339455518900E-002  2.014908040070200E-002  2.064676268659900E-002  2.115673772495800E-002 
 2.167930914676500E-002  2.221478808269000E-002  2.276349334833200E-002  2.332575163403600E-002 
 2.390189769939700E-002  2.449227457257200E-002  2.509723375451400E-002  2.571713542825100E-002 
 2.635234867332800E-002  2.700325168556000E-002  2.767023200219300E-002  2.835368673264700E-002 
 2.905402279494400E-002  2.977165715797900E-002  3.050701708978100E-002  3.126054041189800E-002 
 3.203267576007200E-002  3.282388285134600E-002  3.363463275777400E-002  3.446540818689100E-002 
 3.531670376910700E-002  3.618902635220400E-002  3.708289530310400E-002  3.799884281709100E-002 
 3.893741423467300E-002  3.989916836626900E-002  4.088467782491600E-002  4.189452936719100E-002 
 4.292932424256100E-002  4.398967855135200E-002  4.507622361157100E-002  4.618960633477600E-002 
 4.733048961124500E-002  4.849955270464300E-002  4.969749165644800E-002  5.092501970036200E-002 
 5.218286768696100E-002  5.347178451882900E-002  5.479253759644400E-002  5.614591327507600E-002 
 5.753271733297100E-002  5.895377545109500E-002  6.040993370473700E-002  6.190205906724400E-002 
 6.343103992620500E-002  6.499778661238199E-002  6.660323194170800E-002  6.824833177066800E-002 
 6.993406556540400E-002  7.166143698486900E-002  7.343147447839500E-002  7.524523189801199E-002 
 7.710378912589300E-002  7.900825271730200E-002  8.095975655942000E-002  8.295946254643700E-002 
 8.500856127133399E-002  8.710827273473599E-002  8.925984707128400E-002  9.146456529394500E-002 
 9.372374005670500E-002  9.603871643610599E-002  9.841087273207801E-002  1.008416212885600E-001 
 1.033324093343900E-001  1.058847198449500E-001  1.085000724251200E-001  1.111800242140200E-001 
 1.139261708121000E-001  1.167401472311600E-001  1.196236288677700E-001  1.225783325008100E-001 
 1.256060173135800E-001  1.287084859412200E-001  1.318875855439700E-001  1.351452089069100E-001 
 1.384832955669100E-001  1.419038329674100E-001  1.454088576417000E-001  1.490004564254500E-001 
 1.526807676991600E-001  1.564519826613300E-001  1.603163466330700E-001  1.642761603949000E-001 
 1.683337815566600E-001  1.724916259611100E-001  1.767521691223500E-001  1.811179476996700E-001 
 1.855915610078500E-001  1.901756725647400E-001  1.948730116770900E-001  1.996863750655200E-001 
 2.046186285296400E-001  2.096727086543200E-001  2.148516245580800E-001  2.201584596846600E-001 
 2.255963736388700E-001  2.311686040677600E-001  2.368784685882300E-001  2.427293667623600E-001 
 2.487247821213900E-001  2.548682842397900E-001  2.611635308605100E-001  2.676142700727600E-001 
 2.742243425435600E-001  2.809976838043900E-001  2.879383265943600E-001  2.950504032612400E-001 
 3.023381482217900E-001  3.098059004828700E-001  3.174581062247900E-001  3.252993214485500E-001 
 3.333342146883200E-001  3.415675697911300E-001  3.500042887649700E-001  3.586493946974600E-001 
 3.675080347464900E-001  3.765854832047300E-001  3.858871446398800E-001  3.954185571124900E-001 
 4.051853954731700E-001  4.151934747413500E-001  4.254487535674700E-001  4.359573377805800E-001 
 4.467254840237600E-001  4.577596034791500E-001  4.690662656850900E-001  4.806522024475100E-001 
 4.925243118479600E-001  5.046896623506000E-001  5.171554970106600E-001  5.299292377868300E-001 
 5.430184899601600E-001  5.564310466621800E-001  5.701748935147301E-001  5.842582133845500E-001 
 5.986893912551500E-001  6.134770192191500E-001  6.286299015938600E-001  6.441570601632300E-001 
 6.600677395492600E-001  6.763714127161300E-001  6.930777866102200E-001  7.101968079394900E-001 
 7.277386690955900E-001  7.457138142222600E-001  7.641329454335500E-001  7.830070291857500E-001 
 8.023473028066400E-001  8.221652811859700E-001  8.424727636312600E-001  8.632818408929500E-001 
 8.846049023630100E-001  9.064546434513699E-001  9.288440731446200E-001  9.517865217512900E-001 
 9.752956488385500E-001  9.993854513648600E-001  1.024070272013600E+000  1.049364807732300E+000 
 1.075284118483300E+000  1.101843636209800E+000  1.129059174024200E+000  1.156946935622600E+000 
 1.185523524932500E+000  1.214805955998300E+000  1.244811663111500E+000  1.275558511190300E+000 
 1.307064806416700E+000  1.339349307135200E+000  1.372431235021500E+000  1.406330286526500E+000 
 1.441066644603700E+000  1.476660990725400E+000  1.513134517196300E+000  1.550508939771100E+000 
 1.588806510583400E+000  1.628050031394800E+000  1.668262867170300E+000  1.709468959989400E+000 
 1.751692843301100E+000  1.794959656530700E+000  1.839295160047000E+000  1.884725750500200E+000 
 1.931278476537500E+000  1.978981054908000E+000  2.027861886964200E+000  2.077950075572200E+000 
 2.129275442438900E+000  2.181868545867100E+000  2.235760698950000E+000  2.290983988214100E+000 
 2.347571292723000E+000  2.405556303653200E+000  2.464973544353500E+000  2.525858390899000E+000 
 2.588247093154200E+000  2.652176796355100E+000  2.717685563225100E+000  2.784812396636700E+000 
 2.853597262833700E+000  2.924081115225700E+000  2.996305918771700E+000  3.070314674965400E+000 
 3.146151447437000E+000  3.223861388188700E+000  3.303490764477000E+000  3.385086986359600E+000 
 3.468698634922600E+000  3.554375491205200E+000  3.642168565838000E+000  3.732130129414200E+000 
 3.824313743610700E+000  3.918774293077900E+000  4.015568018116900E+000  4.114752548164400E+000 
 4.216386936104100E+000  4.320531693425900E+000  4.427248826253500E+000  4.536601872261900E+000 
 4.648655938506800E+000  4.763477740187900E+000  4.881135640370600E+000  5.001699690687700E+000 
 5.125241673047700E+000  5.251835142372000E+000  5.381555470388600E+000  5.514479890507200E+000 
 5.650687543802700E+000  5.790259526134600E+000  5.933278936430200E+000  6.079830926160000E+000 
 6.230002750036100E+000  6.383883817962000E+000  6.541565748265700E+000  6.703142422247900E+000 
 6.868710040077400E+000  7.038367178067300E+000  7.212214847365500E+000  7.390356554095500E+000 
 7.572898360981600E+000  7.759948950497900E+000  7.951619689575200E+000  8.148024695907701E+000 
 8.349280905896601E+000  8.555508144272199E+000  8.766829195435800E+000  8.983369876563000E+000 
 9.205259112514099E+000  9.432629012593200E+000  9.665614949204301E+000  9.904355638449600E+000 
 1.014899322271900E+001  1.039967335532100E+001  1.065654528719700E+001  1.091976195579100E+001 
 1.118948007609900E+001  1.146586023397800E+001  1.174906698175800E+001  1.203926893620700E+001 
 1.233663887893100E+001  1.264135385924100E+001  1.295359529956400E+001  1.327354910346300E+001 
 1.360140576631900E+001  1.393736048874700E+001  1.428161329281900E+001  1.463436914115200E+001 
 1.499583805893800E+001  1.536623525899400E+001  1.574578126989100E+001  1.613470206725700E+001 
 1.653322920831900E+001  1.694159996976400E+001  1.736005748901700E+001  1.778885090899600E+001 
 1.822823552644800E+001  1.867847294395200E+001  1.913983122566700E+001  1.961258505694100E+001 
 2.009701590784800E+001  2.059341220077100E+001  2.110206948213000E+001  2.162329059833900E+001 
 2.215738587611800E+001  2.270467330725800E+001  2.326547873794700E+001  2.384013606277500E+001 
 2.442898742352500E+001  2.503238341288600E+001  2.565068328318500E+001  2.628425516027900E+001 
 2.693347626273800E+001  2.759873312642800E+001  2.828042183465100E+001  2.897894825396600E+001 
 2.969472827583900E+001  3.042818806425300E+001  3.117976430944000E+001  3.194990448788300E+001 
 3.273906712873400E+001  3.354772208681300E+001  3.437635082235800E+001  3.522544668767000E+001 
 3.609551522085500E+001  3.698707444681000E+001  3.790065518564700E+001  3.883680136873200E+001 
 3.979607036254000E+001  4.077903330049400E+001  4.178627542301700E+001  4.281839642596500E+001 
 4.387601081768600E+001  4.495974828488300E+001  4.607025406752000E+001  4.720818934298800E+001 
 4.837423161975900E+001  4.956907514076800E+001  5.079343129674400E+001  5.204802904977400E+001 
 5.333361536730300E+001  5.465095566687600E+001  5.600083427184800E+001  5.738405487836200E+001 
 5.880144103385800E+001  6.025383662739400E+001  6.174210639209100E+001  6.326713641997500E+001 
 6.482983468954900E+001  6.643113160638100E+001  6.807198055705800E+001  6.975335847681799E+001 
 7.147626643119500E+001  7.324173021204599E+001  7.505080094828300E+001  7.690455573170600E+001 
 7.880409825827900E+001
    </PP_R>
    <PP_RAB type="real" size="433" columns="4">
 5.083309754903069E-005  5.208867505849340E-005  5.337526533243653E-005  5.469363438614814E-005 
 5.604456715548642E-005  5.742886796422781E-005  5.884736100294413E-005  6.030089081971593E-005 
 6.179032282296297E-005  6.331654379668935E-005  6.488046242846764E-005  6.648300985045046E-005 
 6.812514019375762E-005  6.980783115654476E-005  7.153208458611130E-005  7.329892707538746E-005 
 7.510941057414894E-005  7.696461301533036E-005  7.886563895680806E-005  8.081362023904307E-005 
 8.280971665894726E-005  8.485511666042228E-005  8.695103804193413E-005  8.909872868157062E-005 
 9.129946728000552E-005  9.355456412182162E-005  9.586536185563102E-005  9.823323629346436E-005 
 1.006595972299140E-004  1.031458892814927E-004  1.056935927467463E-004  1.083042244875904E-004 
 1.109793388324327E-004  1.137205285015952E-004  1.165294255555835E-004  1.194077023668057E-004 
 1.223570726152678E-004  1.253792923088649E-004  1.284761608288920E-004  1.316495220013672E-004 
 1.349012651948002E-004  1.382333264451118E-004  1.416476896083069E-004  1.451463875416315E-004 
 1.487315033139095E-004  1.524051714457623E-004  1.561695791804740E-004  1.600269677862310E-004 
 1.639796338905516E-004  1.680299308476481E-004  1.721802701395834E-004  1.764331228120330E-004 
 1.807910209454890E-004  1.852565591628434E-004  1.898323961741642E-004  1.945212563596678E-004 
 1.993259313917501E-004  2.042492818971261E-004  2.092942391599863E-004  2.144638068672372E-004 
 2.197610628968598E-004  2.251891611504115E-004  2.307513334308268E-004  2.364508913665680E-004 
 2.422912283833216E-004  2.482758217243893E-004  2.544082345209843E-004  2.606921179136575E-004 
 2.671312132261151E-004  2.737293541928040E-004  2.804904692413745E-004  2.874185838316293E-004 
 2.945178228522755E-004  3.017924130767246E-004  3.092466856797206E-004  3.168850788159941E-004 
 3.247121402627696E-004  3.327325301272498E-004  3.409510236213959E-004  3.493725139048311E-004 
 3.580020149982846E-004  3.668446647687475E-004  3.759057279885349E-004  3.851905994698416E-004 
 3.947048072767684E-004  4.044540160165004E-004  4.144440302121027E-004  4.246807977583508E-004 
 4.351704134629585E-004  4.459191226755000E-004  4.569333250055873E-004  4.682195781332287E-004 
 4.797846017131283E-004  4.916352813754385E-004  5.037786728254035E-004  5.162220060441912E-004 
 5.289726895934958E-004  5.420383150264527E-004  5.554266614075954E-004  5.691456999443678E-004 
 5.832035987330013E-004  5.976087276217039E-004  6.123696631939470E-004  6.274951938748498E-004 
 6.429943251635390E-004  6.588762849950980E-004  6.751505292344688E-004  6.918267473065561E-004 
 7.089148679650431E-004  7.264250652037769E-004  7.443677643143081E-004  7.627536480928572E-004 
 7.815936632007537E-004  8.008990266818177E-004  8.206812326408526E-004  8.409520590870812E-004 
 8.617235749465270E-004  8.830081472477076E-004  9.048184484847396E-004  9.271674641623208E-004 
 9.500685005271266E-004  9.735351924901363E-004  9.975815117446464E-004  1.022221775084729E-003 
 1.047470652929331E-003  1.073343178056679E-003  1.099854754554694E-003  1.127021166992175E-003 
 1.154858589816883E-003  1.183383596985366E-003  1.212613171830912E-003  1.242564717175129E-003 
 1.273256065689356E-003  1.304705490511885E-003  1.336931716127527E-003  1.369953929515873E-003 
 1.403791791574930E-003  1.438465448826821E-003  1.473995545412842E-003  1.510403235384540E-003 
 1.547710195298539E-003  1.585938637122407E-003  1.625111321459335E-003  1.665251571099375E-003 
 1.706383284905542E-003  1.748530952042698E-003  1.791719666558146E-003  1.835975142322147E-003 
 1.881323728337507E-003  1.927792424427430E-003  1.975408897310803E-003  2.024201497074364E-003 
 2.074199274052100E-003  2.125431996121188E-003  2.177930166425382E-003  2.231725041536097E-003 
 2.286848650062027E-003  2.343333811718569E-003  2.401214156868022E-003  2.460524146542654E-003 
 2.521299092962320E-003  2.583575180558503E-003  2.647389487518292E-003  2.712780007859982E-003 
 2.779785674053971E-003  2.848446380203131E-003  2.918803005794157E-003  2.990897440037421E-003 
 3.064772606806345E-003  3.140472490194329E-003  3.218042160702175E-003  3.297527802071615E-003 
 3.378976738782767E-003  3.462437464230636E-003  3.547959669597010E-003  3.635594273436057E-003 
 3.725393451989961E-003  3.817410670254131E-003  3.911700713809534E-003  4.008319721440463E-003 
 4.107325218560188E-003  4.208776151458636E-003  4.312732922399679E-003  4.419257425582901E-003 
 4.528413083994753E-003  4.640264887169329E-003  4.754879429882434E-003  4.872324951800674E-003 
 4.992671378110190E-003  5.115990361149461E-003  5.242355323069811E-003  5.371841499549524E-003 
 5.504525984588370E-003  5.640487776407944E-003  5.779807824485131E-003  5.922569077749931E-003 
 6.068856533970347E-003  6.218757290359456E-003  6.372360595431266E-003  6.529757902138307E-003 
 6.691042922321191E-003  6.856311682502624E-003  7.025662581060476E-003  7.199196446812653E-003 
 7.377016599048863E-003  7.559228909045412E-003  7.745941863098666E-003  7.937266627117391E-003 
 8.133317112806966E-003  8.334210045493506E-003  8.540065033617173E-003  8.751004639947400E-003 
 8.967154454554170E-003  9.188643169581699E-003  9.415602655870199E-003  9.648168041470315E-003 
 9.886477792094669E-003  1.013067379355923E-002  1.038090143626035E-002  1.063730970173582E-002 
 1.090005125136869E-002  1.116928251727757E-002  1.144516379545445E-002  1.172785934120213E-002 
 1.201753746692974E-002  1.231437064236279E-002  1.261853559722916E-002  1.293021342648088E-002 
 1.324958969811485E-002  1.357685456365838E-002  1.391220287138060E-002  1.425583428230385E-002 
 1.460795338907680E-002  1.496876983778694E-002  1.533849845278020E-002  1.571735936456392E-002 
 1.610557814086860E-002  1.650338592094814E-002  1.691101955319559E-002  1.732872173615947E-002 
 1.775674116304247E-002  1.819533266976984E-002  1.864475738671316E-002  1.910528289416476E-002 
 1.957718338165068E-002  2.006073981117760E-002  2.055624008451360E-002  2.106397921460103E-002 
 2.158425950120178E-002  2.211739071088131E-002  2.266369026144011E-002  2.322348341089762E-002 
 2.379710345114687E-002  2.438489190639015E-002  2.498719873647866E-002  2.560438254526881E-002 
 2.623681079413725E-002  2.688486002075153E-002  2.754891606326453E-002  2.822937429002722E-002 
 2.892663983499142E-002  2.964112783891491E-002  3.037326369653713E-002  3.112348330984028E-002 
 3.189223334759332E-002  3.267997151127906E-002  3.348716680760913E-002  3.431429982775631E-002 
 3.516186303350179E-002  3.603036105042901E-002  3.692031096837418E-002  3.783224264929427E-002 
 3.876669904273072E-002  3.972423650908592E-002  4.070542515086152E-002  4.171084915208765E-002 
 4.274110712614328E-002  4.379681247216055E-002  4.487859374022272E-002  4.598709500560717E-002 
 4.712297625224433E-002  4.828691376567534E-002  4.947960053568685E-002  5.070174666891793E-002 
 5.195407981164183E-002  5.323734558298839E-002  5.455230801888778E-002  5.589975002695517E-002 
 5.728047385262124E-002  5.869530155677957E-002  6.014507550523363E-002  6.163065887021214E-002 
 6.315293614430624E-002  6.471281366707039E-002  6.631122016464773E-002  6.794910730271307E-002 
 6.962745025309187E-002  7.134724827434344E-002  7.310952530671790E-002  7.491533058179478E-002 
 7.676573924716401E-002  7.866185300656911E-002  8.060480077583232E-002  8.259573935499581E-002 
 8.463585411706222E-002  8.672635971375393E-002  8.886850079868443E-002  9.106355276841196E-002 
 9.331282252179099E-002  9.561764923807961E-002  9.797940517425958E-002  1.003994964820641E-001 
 1.028793640451720E-001  1.054204843370885E-001  1.080243703002141E-001  1.106925722466279E-001 
 1.134266787811204E-001  1.162283177470136E-001  1.190991571953663E-001  1.220409063780905E-001 
 1.250553167656297E-001  1.281441830897413E-001  1.313093444120581E-001  1.345526852190360E-001 
 1.378761365439455E-001  1.412816771165803E-001  1.447713345413617E-001  1.483471865045327E-001 
 1.520113620111934E-001  1.557660426528701E-001  1.596134639063969E-001  1.635559164648858E-001 
 1.675957476015680E-001  1.717353625673264E-001  1.759772260227378E-001  1.803238635055012E-001 
 1.847778629340857E-001  1.893418761485589E-001  1.940186204894283E-001  1.988108804155171E-001 
 2.037215091617798E-001  2.087534304380746E-001  2.139096401698970E-001  2.191932082820919E-001 
 2.246072805266594E-001  2.301550803556679E-001  2.358399108404541E-001  2.416651566382122E-001 
 2.476342860071686E-001  2.537508528715661E-001  2.600184989374834E-001  2.664409558612449E-001 
 2.730220474710168E-001  2.797656920435351E-001  2.866759046370286E-001  2.937567994815529E-001 
 3.010125924287396E-001  3.084476034617393E-001  3.160662592672381E-001  3.238730958711333E-001 
 3.318727613391615E-001  3.400700185442370E-001  3.484697480022783E-001  3.570769507779437E-001 
 3.658967514621478E-001  3.749344012232685E-001  3.841952809334795E-001  3.936849043725290E-001 
 4.034089215105487E-001  4.133731218718476E-001  4.235834379820781E-001  4.340459489002423E-001 
 4.447668838380733E-001  4.557526258688916E-001  4.670097157278383E-001  4.785448557063166E-001 
 4.903649136422761E-001  5.024769270092196E-001  5.148881071063464E-001  5.276058433518827E-001 
 5.406377076826747E-001  5.539914590624340E-001  5.676750481012696E-001  5.816966217893882E-001 
 5.960645283475728E-001  6.107873221977562E-001  6.258737690560583E-001  6.413328511517266E-001 
 6.571737725751770E-001  6.734059647577929E-001  6.900390920873160E-001  7.070830576618511E-001 
 7.245480091860999E-001  7.424443450130154E-001  7.607827203348357E-001  7.795740535271021E-001 
 7.988295326492285E-001  8.185606221056467E-001  8.387790694716737E-001  8.594969124876182E-001 
 8.807264862260513E-001  9.024804304358318E-001  9.247716970676162E-001  9.476135579851747E-001 
 9.710196128674163E-001  9.950037973052235E-001  1.019580391098682E+000  1.044764026758807E+000 
 1.070569698219741E+000  1.097012769765772E+000  1.124108985178996E+000  1.151874477112924E+000 
 1.180325776697594E+000  1.209479823382047E+000  1.239353975019560E+000  1.269966018202554E+000 
 1.301334178852147E+000  1.333477133069810E+000  1.366414018256638E+000  1.400164444507561E+000 
 1.434748506286909E+000  1.470186794392189E+000  1.506500408213685E+000  1.543710968296547E+000 
 1.581840629213487E+000  1.620912092755063E+000  1.660948621446098E+000  1.701974052395833E+000 
 1.744012811490001E+000  1.787089927933815E+000  1.831231049153768E+000  1.876462456067876E+000 
 1.922811078732749E+000
    </PP_RAB>
  </PP_MESH>
  <PP_NLCC type="real" size="433" columns="4">
 5.402284365278203E-002  5.402284359176601E-002  5.402284352612016E-002  5.402284345549276E-002 
 5.402284337950742E-002  5.402284329775748E-002  5.402284320980448E-002  5.402284311517892E-002 
 5.402284301337465E-002  5.402284290384662E-002  5.402284278601067E-002  5.402284265923502E-002 
 5.402284252284321E-002  5.402284237610474E-002  5.402284221823656E-002  5.402284204839357E-002 
 5.402284186566857E-002  5.402284166908437E-002  5.402284145759132E-002  5.402284123005784E-002 
 5.402284098526879E-002  5.402284072191670E-002  5.402284043859384E-002  5.402284013378665E-002 
 5.402283980586699E-002  5.402283945308255E-002  5.402283907355054E-002  5.402283866524332E-002 
 5.402283822598044E-002  5.402283775341599E-002  5.402283724502736E-002  5.402283669810094E-002 
 5.402283610971706E-002  5.402283547673477E-002  5.402283479577682E-002  5.402283406320810E-002 
 5.402283327512136E-002  5.402283242731173E-002  5.402283151525683E-002  5.402283053409127E-002 
 5.402282947858285E-002  5.402282834310305E-002  5.402282712159841E-002  5.402282580755632E-002 
 5.402282439397314E-002  5.402282287331610E-002  5.402282123748021E-002  5.402281947775096E-002 
 5.402281758475411E-002  5.402281554840720E-002  5.402281335786541E-002  5.402281100146427E-002 
 5.402280846666078E-002  5.402280573996181E-002  5.402280280685716E-002  5.402279965173933E-002 
 5.402279625782303E-002  5.402279260705851E-002  5.402278868002965E-002  5.402278445585773E-002 
 5.402277991208994E-002  5.402277502457613E-002  5.402276976734776E-002  5.402276411247713E-002 
 5.402275802993092E-002  5.402275148741102E-002  5.402274445018660E-002  5.402273688090960E-002 
 5.402272873941648E-002  5.402271998252132E-002  5.402271056378272E-002  5.402270043326581E-002 
 5.402268953727410E-002  5.402267781807176E-002  5.402266521357958E-002  5.402265165704562E-002 
 5.402263707670134E-002  5.402262139537885E-002  5.402260453011231E-002  5.402258639170091E-002 
 5.402256688423948E-002  5.402254590462348E-002  5.402252334200467E-002  5.402249907721420E-002 
 5.402247298213948E-002  5.402244491905901E-002  5.402241473992044E-002  5.402238228557205E-002 
 5.402234738493498E-002  5.402230985411129E-002  5.402226949542892E-002  5.402222609641686E-002 
 5.402217942870125E-002  5.402212924682222E-002  5.402207528696056E-002  5.402201726557695E-002 
 5.402195487794061E-002  5.402188779655841E-002  5.402181566948386E-002  5.402173811850357E-002 
 5.402165473718750E-002  5.402156508879939E-002  5.402146870405019E-002  5.402136507869169E-002 
 5.402125367092703E-002  5.402113389863746E-002  5.402100513640296E-002  5.402086671230634E-002 
 5.402071790450277E-002  5.402055793754320E-002  5.402038597842180E-002  5.402020113234322E-002 
 5.402000243818190E-002  5.401978886360399E-002  5.401955929984540E-002  5.401931255610409E-002 
 5.401904735353191E-002  5.401876231878799E-002  5.401845597713072E-002  5.401812674501056E-002 
 5.401777292212753E-002  5.401739268292269E-002  5.401698406745865E-002  5.401654497164018E-002 
 5.401607313674673E-002  5.401556613820869E-002  5.401502137358730E-002  5.401443604970375E-002 
 5.401380716884367E-002  5.401313151399786E-002  5.401240563304703E-002  5.401162582183894E-002 
 5.401078810606778E-002  5.400988822188665E-002  5.400892159515068E-002  5.400788331921959E-002 
 5.400676813120230E-002  5.400557038655176E-002  5.400428403189408E-002  5.400290257597552E-002 
 5.400141905860426E-002  5.399982601745226E-002  5.399811545257481E-002  5.399627878850542E-002 
 5.399430683375568E-002  5.399218973756963E-002  5.398991694373707E-002  5.398747714128888E-002 
 5.398485821187321E-002  5.398204717360177E-002  5.397903012114061E-002  5.397579216181897E-002 
 5.397231734749985E-002  5.396858860195606E-002  5.396458764347783E-002  5.396029490241875E-002 
 5.395568943337474E-002  5.395074882168857E-002  5.394544908392229E-002  5.393976456196904E-002 
 5.393366781041593E-002  5.392712947678871E-002  5.392011817426121E-002  5.391260034641981E-002 
 5.390454012363963E-002  5.389589917061491E-002  5.388663652457954E-002  5.387670842371743E-002 
 5.386606812526107E-002  5.385466571275095E-002  5.384244789192490E-002  5.382935777467083E-002 
 5.381533465049139E-002  5.380031374489003E-002  5.378422596409205E-002  5.376699762551412E-002 
 5.374855017336790E-002  5.372879987880740E-002  5.370765752401035E-002  5.368502806960726E-002 
 5.366081030486838E-002  5.363489648008449E-002  5.360717192060573E-002  5.357751462200560E-002 
 5.354579482592744E-002  5.351187457615119E-002  5.347560725454210E-002  5.343683709657356E-002 
 5.339539868619872E-002  5.335111642998035E-002  5.330380401044924E-002  5.325326381884497E-002 
 5.319928636750633E-002  5.314164968238402E-002  5.308011867631720E-002  5.301444450396891E-002 
 5.294436389956005E-002  5.286959849882163E-002  5.278985414691744E-002  5.270482019446032E-002 
 5.261416878412484E-002  5.251755413083165E-002  5.241461179896442E-002  5.230495798064431E-002 
 5.218818877967683E-002  5.206387950648422E-002  5.193158399005004E-002  5.179083391372338E-002 
 5.164113818260747E-002  5.148198233123184E-002  5.131282798122954E-002  5.113311235990294E-002 
 5.094224789176769E-002  5.073962187649957E-002  5.052459626812204E-002  5.029650757179593E-002 
 5.005466687620341E-002  4.979836004124030E-002  4.952684806255797E-002  4.923936763643620E-002 
 4.893513195047837E-002  4.861333172774506E-002  4.827313655411036E-002  4.791369652090150E-002 
 4.753414421715838E-002  4.713359710816905E-002  4.671116033925869E-002  4.626593000607666E-002 
 4.579699693480336E-002  4.530345101774891E-002  4.478438615167638E-002  4.423890582774042E-002 
 4.366612942314709E-002  4.306519924539623E-002  4.243528838012659E-002  4.177560939299664E-002 
 4.108542393459232E-002  4.036405329480698E-002  3.961088994926112E-002  3.882541013497002E-002 
 3.800718748518114E-002  3.715590774389321E-002  3.627138456862341E-002  3.535357641499542E-002 
 3.440260447837875E-002  3.341877164536148E-002  3.240258238087342E-002  3.135476344444923E-002 
 3.027628529077183E-002  2.916838396439590E-002  2.803258324539269E-002  2.687071674069510E-002 
 2.568494954384486E-002  2.447779900251144E-002  2.325215403712097E-002  2.201129234379941E-002 
 2.075889468886501E-002  1.949905535875567E-002  1.823628766656954E-002  1.697552323253188E-002 
 1.572210354863668E-002  1.448176210542477E-002  1.326059509930885E-002  1.206501845003253E-002 
 1.090170853784389E-002  9.777523717027958E-003  8.699403275241921E-003  7.674240085462405E-003 
 6.708722739110233E-003  5.809142455253430E-003  4.981159533372720E-003  4.229523558792349E-003 